ITEM: TIMESTEP
0
ITEM: NUMBER OF ATOMS
5000
ITEM: BOX BOUNDS xy xz yz pp pp pp
0.0000000000000000e+00 4.0274262714700008e+01 1.0440125480000000e-01
0.0000000000000000e+00 4.0169453745200002e+01 1.0440125480000000e-01
0.0000000000000000e+00 4.0065188865899998e+01 1.0412956299999999e-01
ITEM: ATOMS id type x y z
1 1 0 0 0
2 1 0.0104401 0.010413 4.00652
3 1 0.0208803 0.0208259 8.01304
4 1 0.135722 40.0966 12.0196
5 1 0.0417605 0.0416518 16.0261
6 1 40.2221 40.1174 20.0326
7 1 0.0626408 0.0624777 24.0391
8 1 0.177482 40.1382 28.0456
9 1 40.149 0.0833036 32.0522
10 1 40.2638 40.159 36.0587
11 1 0.0104401 4.00653 0
12 1 0.0208803 4.01695 4.00652
13 1 40.0968 4.02736 8.01304
14 1 40.1072 4.03777 12.0196
15 1 40.1177 4.04818 16.0261
16 1 0.0626408 4.0586 20.0326
17 1 0.0730809 4.06901 24.0391
18 1 40.149 4.07942 28.0456
19 1 40.1594 4.08984 32.0522
20 1 0.104401 4.10025 36.0587
21 1 40.0863 8.01306 0
22 1 40.0968 8.02348 4.00652
23 1 40.1072 8.03389 8.01304
24 1 0.0522006 8.0443 12.0196
25 1 0.0626408 8.05472 16.0261
26 1 0.0730809 8.06513 20.0326
27 1 40.149 8.07554 24.0391
28 1 40.1594 8.08595 28.0456
29 1 0.104401 8.09637 32.0522
30 1 40.1803 8.10678 36.0587
31 1 40.0968 12.0196 0
32 1 40.1072 12.03 4.00652
33 1 40.1177 12.0404 8.01304
34 1 0.0626408 12.0508 12.0196
35 1 40.1385 12.0612 16.0261
36 1 0.083521 12.0717 20.0326
37 1 40.1594 12.0821 24.0391
38 1 40.1699 12.0925 28.0456
39 1 0.114841 12.1029 32.0522
40 1 40.1907 12.1133 36.0587
41 1 40.1072 16.0261 0
42 1 40.1177 16.0365 4.00652
43 1 40.1281 16.047 8.01304
44 1 0.0730809 16.0574 12.0196
45 1 40.149 16.0678 16.0261
46 1 0.0939611 16.0782 20.0326
47 1 40.1699 16.0886 24.0391
48 1 0.114841 16.099 28.0456
49 1 0.125282 16.1094 32.0522
50 1 40.2012 16.1198 36.0587
51 1 40.1177 20.0327 0
52 1 40.1281 20.0431 4.00652
53 1 40.1385 20.0535 8.01304
54 1 0.083521 20.0639 12.0196
55 1 40.1594 20.0743 16.0261
56 1 0.104401 20.0847 20.0326
57 1 40.1803 20.0951 24.0391
58 1 0.125282 20.1056 28.0456
59 1 40.2012 20.116 32.0522
60 1 0.146162 20.1264 36.0587
61 1 40.1281 24.0392 0
62 1 40.1385 24.0496 4.00652
63 1 40.149 24.06 8.01304
64 1 0.0939611 24.0704 12.0196
65 1 40.1699 24.0808 16.0261
66 1 0.114841 24.0913 20.0326
67 1 40.1907 24.1017 24.0391
68 1 0.135722 24.1121 28.0456
69 1 40.2116 24.1225 32.0522
70 1 0.156602 24.1329 36.0587
71 1 40.1385 28.0457 0
72 1 40.149 28.0561 4.00652
73 1 40.1594 28.0666 8.01304
74 1 0.104401 28.077 12.0196
75 1 40.1803 28.0874 16.0261
76 1 0.125282 28.0978 20.0326
77 1 40.2012 28.1082 24.0391
78 1 0.146162 28.1186 28.0456
79 1 40.2221 28.129 32.0522
80 1 0.167042 28.1394 36.0587
81 1 40.149 32.0523 0
82 1 40.1594 32.0627 4.00652
83 1 40.1699 32.0731 8.01304
84 1 0.114841 32.0835 12.0196
85 1 40.1907 32.0939 16.0261
86 1 0.135722 32.1043 20.0326
87 1 40.2116 32.1147 24.0391
88 1 0.156602 32.1251 28.0456
89 1 40.2325 32.1356 32.0522
90 1 0.177482 32.146 36.0587
91 1 40.1594 36.0588 0
92 1 40.1699 36.0692 4.00652
93 1 40.1803 36.0796 8.01304
94 1 0.125281 36.09 12.0196
95 1 40.2012 36.1004 16.0261
96 1 0.146162 36.1109 20.0326
97 1 40.2221 36.1213 24.0391
98 1 0.167042 36.1317 28.0456
99 1 40.2429 36.1421 32.0522
100 1 0.187922 36.1525 36.0587
101 1 4.00655 0 0
102 1 4.01699 0.010413 4.00652
103 1 4.02743 0.0208259 8.01304
104 1 4.14227 40.0966 12.0196
105 1 4.04831 0.0416518 16.0261
106 1 4.16315 40.1174 20.0326
107 1 4.06919 0.0624777 24.0391
108 1 4.18403 40.1382 28.0456
109 1 4.09007 0.0833036 32.0522
110 1 4.20491 40.159 36.0587
111 1 4.01699 4.00653 0
112 1 4.02743 4.01695 4.00652
113 1 4.03787 4.02736 8.01304
114 1 4.04831 4.03777 12.0196
115 1 4.05875 4.04818 16.0261
116 1 4.06919 4.0586 20.0326
117 1 4.07963 4.06901 24.0391
118 1 4.09007 4.07942 28.0456
119 1 4.10051 4.08984 32.0522
120 1 4.11095 4.10025 36.0587
121 1 4.02743 8.01306 0
122 1 4.03787 8.02348 4.00652
123 1 4.04831 8.03389 8.01304
124 1 4.05875 8.0443 12.0196
125 1 4.06919 8.05472 16.0261
126 1 4.07963 8.06513 20.0326
127 1 4.09007 8.07554 24.0391
128 1 4.10051 8.08595 28.0456
129 1 4.11095 8.09637 32.0522
130 1 4.12139 8.10678 36.0587
131 1 4.03787 12.0196 0
132 1 4.04831 12.03 4.00652
133 1 4.05875 12.0404 8.01304
134 1 4.06919 12.0508 12.0196
135 1 4.07963 12.0612 16.0261
136 1 4.09007 12.0717 20.0326
137 1 4.10051 12.0821 24.0391
138 1 4.11095 12.0925 28.0456
139 1 4.12139 12.1029 32.0522
140 1 4.13183 12.1133 36.0587
141 1 4.04831 16.0261 0
142 1 4.05875 16.0365 4.00652
143 1 4.06919 16.047 8.01304
144 1 4.07963 16.0574 12.0196
145 1 4.09007 16.0678 16.0261
146 1 4.10051 16.0782 20.0326
147 1 4.11095 16.0886 24.0391
148 1 4.12139 16.099 28.0456
149 1 4.13183 16.1094 32.0522
150 1 4.14227 16.1198 36.0587
151 1 4.05875 20.0327 0
152 1 4.06919 20.0431 4.00652
153 1 4.07963 20.0535 8.01304
154 1 4.09007 20.0639 12.0196
155 1 4.10051 20.0743 16.0261
156 1 4.11095 20.0847 20.0326
157 1 4.12139 20.0951 24.0391
158 1 4.13183 20.1056 28.0456
159 1 4.14227 20.116 32.0522
160 1 4.15271 20.1264 36.0587
161 1 4.06919 24.0392 0
162 1 4.07963 24.0496 4.00652
163 1 4.09007 24.06 8.01304
164 1 4.10051 24.0704 12.0196
165 1 4.11095 24.0808 16.0261
166 1 4.12139 24.0913 20.0326
167 1 4.13183 24.1017 24.0391
168 1 4.14227 24.1121 28.0456
169 1 4.15271 24.1225 32.0522
170 1 4.16315 24.1329 36.0587
171 1 4.07963 28.0457 0
172 1 4.09007 28.0561 4.00652
173 1 4.10051 28.0666 8.01304
174 1 4.11095 28.077 12.0196
175 1 4.12139 28.0874 16.0261
176 1 4.13183 28.0978 20.0326
177 1 4.14227 28.1082 24.0391
178 1 4.15271 28.1186 28.0456
179 1 4.16315 28.129 32.0522
180 1 4.17359 28.1394 36.0587
181 1 4.09007 32.0523 0
182 1 4.10051 32.0627 4.00652
183 1 4.11095 32.0731 8.01304
184 1 4.12139 32.0835 12.0196
185 1 4.13183 32.0939 16.0261
186 1 4.14227 32.1043 20.0326
187 1 4.15271 32.1147 24.0391
188 1 4.16315 32.1251 28.0456
189 1 4.17359 32.1356 32.0522
190 1 4.18403 32.146 36.0587
191 1 4.10051 36.0588 0
192 1 4.11095 36.0692 4.00652
193 1 4.12139 36.0796 8.01304
194 1 4.13183 36.09 12.0196
195 1 4.14227 36.1004 16.0261
196 1 4.15271 36.1109 20.0326
197 1 4.16315 36.1213 24.0391
198 1 4.17359 36.1317 28.0456
199 1 4.18403 36.1421 32.0522
200 1 4.19447 36.1525 36.0587
201 1 8.01309 0 0
202 1 8.02353 0.010413 4.00652
203 1 8.03397 0.0208259 8.01304
204 1 8.14881 40.0966 12.0196
205 1 8.05485 0.0416518 16.0261
206 1 8.16969 40.1174 20.0326
207 1 8.07573 0.0624777 24.0391
208 1 8.19057 40.1382 28.0456
209 1 8.09661 0.0833036 32.0522
210 1 8.21145 40.159 36.0587
211 1 8.02353 4.00653 0
212 1 8.03397 4.01695 4.00652
213 1 8.04441 4.02736 8.01304
214 1 8.05485 4.03777 12.0196
215 1 8.06529 4.04818 16.0261
216 1 8.07573 4.0586 20.0326
217 1 8.08617 4.06901 24.0391
218 1 8.09661 4.07942 28.0456
219 1 8.10705 4.08984 32.0522
220 1 8.11749 4.10025 36.0587
221 1 8.03397 8.01306 0
222 1 8.04441 8.02348 4.00652
223 1 8.05485 8.03389 8.01304
224 1 8.06529 8.0443 12.0196
225 1 8.07573 8.05472 16.0261
226 1 8.08617 8.06513 20.0326
227 1 8.09661 8.07554 24.0391
228 1 8.10705 8.08595 28.0456
229 1 8.11749 8.09637 32.0522
230 1 8.12793 8.10678 36.0587
231 1 8.04441 12.0196 0
232 1 8.05485 12.03 4.00652
233 1 8.06529 12.0404 8.01304
234 1 8.07573 12.0508 12.0196
235 1 8.08617 12.0612 16.0261
236 1 8.09661 12.0717 20.0326
237 1 8.10705 12.0821 24.0391
238 1 8.11749 12.0925 28.0456
239 1 8.12793 12.1029 32.0522
240 1 8.13837 12.1133 36.0587
241 1 8.05485 16.0261 0
242 1 8.06529 16.0365 4.00652
243 1 8.07573 16.047 8.01304
244 1 8.08617 16.0574 12.0196
245 1 8.09661 16.0678 16.0261
246 1 8.10705 16.0782 20.0326
247 1 8.11749 16.0886 24.0391
248 1 8.12793 16.099 28.0456
249 1 8.13837 16.1094 32.0522
250 1 8.14881 16.1198 36.0587
251 1 8.06529 20.0327 0
252 1 8.07573 20.0431 4.00652
253 1 8.08617 20.0535 8.01304
254 1 8.09661 20.0639 12.0196
255 1 8.10705 20.0743 16.0261
256 1 8.11749 20.0847 20.0326
257 1 8.12793 20.0951 24.0391
258 1 8.13837 20.1056 28.0456
259 1 8.14881 20.116 32.0522
260 1 8.15925 20.1264 36.0587
261 1 8.07573 24.0392 0
262 1 8.08617 24.0496 4.00652
263 1 8.09661 24.06 8.01304
264 1 8.10705 24.0704 12.0196
265 1 8.11749 24.0808 16.0261
266 1 8.12793 24.0913 20.0326
267 1 8.13837 24.1017 24.0391
268 1 8.14881 24.1121 28.0456
269 1 8.15925 24.1225 32.0522
270 1 8.16969 24.1329 36.0587
271 1 8.08617 28.0457 0
272 1 8.09661 28.0561 4.00652
273 1 8.10705 28.0666 8.01304
274 1 8.11749 28.077 12.0196
275 1 8.12793 28.0874 16.0261
276 1 8.13837 28.0978 20.0326
277 1 8.14881 28.1082 24.0391
278 1 8.15925 28.1186 28.0456
279 1 8.16969 28.129 32.0522
280 1 8.18013 28.1394 36.0587
281 1 8.09661 32.0523 0
282 1 8.10705 32.0627 4.00652
283 1 8.11749 32.0731 8.01304
284 1 8.12793 32.0835 12.0196
285 1 8.13837 32.0939 16.0261
286 1 8.14881 32.1043 20.0326
287 1 8.15925 32.1147 24.0391
288 1 8.16969 32.1251 28.0456
289 1 8.18013 32.1356 32.0522
290 1 8.19057 32.146 36.0587
291 1 8.10705 36.0588 0
292 1 8.11749 36.0692 4.00652
293 1 8.12793 36.0796 8.01304
294 1 8.13837 36.09 12.0196
295 1 8.14881 36.1004 16.0261
296 1 8.15925 36.1109 20.0326
297 1 8.16969 36.1213 24.0391
298 1 8.18013 36.1317 28.0456
299 1 8.19057 36.1421 32.0522
300 1 8.20101 36.1525 36.0587
301 1 12.0196 0 0
302 1 12.0301 0.010413 4.00652
303 1 12.0405 0.0208259 8.01304
304 1 12.1554 40.0966 12.0196
305 1 12.0614 0.0416518 16.0261
306 1 12.1762 40.1174 20.0326
307 1 12.0823 0.0624777 24.0391
308 1 12.1971 40.1382 28.0456
309 1 12.1032 0.0833036 32.0522
310 1 12.218 40.159 36.0587
311 1 12.0301 4.00653 0
312 1 12.0405 4.01695 4.00652
313 1 12.051 4.02736 8.01304
314 1 12.0614 4.03777 12.0196
315 1 12.0718 4.04818 16.0261
316 1 12.0823 4.0586 20.0326
317 1 12.0927 4.06901 24.0391
318 1 12.1032 4.07942 28.0456
319 1 12.1136 4.08984 32.0522
320 1 12.124 4.10025 36.0587
321 1 12.0405 8.01306 0
322 1 12.051 8.02348 4.00652
323 1 12.0614 8.03389 8.01304
324 1 12.0718 8.0443 12.0196
325 1 12.0823 8.05472 16.0261
326 1 12.0927 8.06513 20.0326
327 1 12.1032 8.07554 24.0391
328 1 12.1136 8.08595 28.0456
329 1 12.124 8.09637 32.0522
330 1 12.1345 8.10678 36.0587
331 1 12.051 12.0196 0
332 1 12.0614 12.03 4.00652
333 1 12.0718 12.0404 8.01304
334 1 12.0823 12.0508 12.0196
335 1 12.0927 12.0612 16.0261
336 1 12.1032 12.0717 20.0326
337 1 12.1136 12.0821 24.0391
338 1 12.124 12.0925 28.0456
339 1 12.1345 12.1029 32.0522
340 1 12.1449 12.1133 36.0587
341 1 12.0614 16.0261 0
342 1 12.0718 16.0365 4.00652
343 1 12.0823 16.047 8.01304
344 1 12.0927 16.0574 12.0196
345 1 12.1032 16.0678 16.0261
346 1 12.1136 16.0782 20.0326
347 1 12.124 16.0886 24.0391
348 1 12.1345 16.099 28.0456
349 1 12.1449 16.1094 32.0522
350 1 12.1554 16.1198 36.0587
351 1 12.0718 20.0327 0
352 1 12.0823 20.0431 4.00652
353 1 12.0927 20.0535 8.01304
354 1 12.1032 20.0639 12.0196
355 1 12.1136 20.0743 16.0261
356 1 12.124 20.0847 20.0326
357 1 12.1345 20.0951 24.0391
358 1 12.1449 20.1056 28.0456
359 1 12.1554 20.116 32.0522
360 1 12.1658 20.1264 36.0587
361 1 12.0823 24.0392 0
362 1 12.0927 24.0496 4.00652
363 1 12.1032 24.06 8.01304
364 1 12.1136 24.0704 12.0196
365 1 12.124 24.0808 16.0261
366 1 12.1345 24.0913 20.0326
367 1 12.1449 24.1017 24.0391
368 1 12.1554 24.1121 28.0456
369 1 12.1658 24.1225 32.0522
370 1 12.1762 24.1329 36.0587
371 1 12.0927 28.0457 0
372 1 12.1032 28.0561 4.00652
373 1 12.1136 28.0666 8.01304
374 1 12.124 28.077 12.0196
375 1 12.1345 28.0874 16.0261
376 1 12.1449 28.0978 20.0326
377 1 12.1554 28.1082 24.0391
378 1 12.1658 28.1186 28.0456
379 1 12.1762 28.129 32.0522
380 1 12.1867 28.1394 36.0587
381 1 12.1032 32.0523 0
382 1 12.1136 32.0627 4.00652
383 1 12.124 32.0731 8.01304
384 1 12.1345 32.0835 12.0196
385 1 12.1449 32.0939 16.0261
386 1 12.1554 32.1043 20.0326
387 1 12.1658 32.1147 24.0391
388 1 12.1762 32.1251 28.0456
389 1 12.1867 32.1356 32.0522
390 1 12.1971 32.146 36.0587
391 1 12.1136 36.0588 0
392 1 12.124 36.0692 4.00652
393 1 12.1345 36.0796 8.01304
394 1 12.1449 36.09 12.0196
395 1 12.1554 36.1004 16.0261
396 1 12.1658 36.1109 20.0326
397 1 12.1762 36.1213 24.0391
398 1 12.1867 36.1317 28.0456
399 1 12.1971 36.1421 32.0522
400 1 12.2076 36.1525 36.0587
401 1 16.0262 0 0
402 1 16.0366 0.010413 4.00652
403 1 16.0471 0.0208259 8.01304
404 1 16.1619 40.0966 12.0196
405 1 16.0679 0.0416518 16.0261
406 1 16.1828 40.1174 20.0326
407 1 16.0888 0.0624777 24.0391
408 1 16.2037 40.1382 28.0456
409 1 16.1097 0.0833036 32.0522
410 1 16.2245 40.159 36.0587
411 1 16.0366 4.00653 0
412 1 16.0471 4.01695 4.00652
413 1 16.0575 4.02736 8.01304
414 1 16.0679 4.03777 12.0196
415 1 16.0784 4.04818 16.0261
416 1 16.0888 4.0586 20.0326
417 1 16.0993 4.06901 24.0391
418 1 16.1097 4.07942 28.0456
419 1 16.1201 4.08984 32.0522
420 1 16.1306 4.10025 36.0587
421 1 16.0471 8.01306 0
422 1 16.0575 8.02348 4.00652
423 1 16.0679 8.03389 8.01304
424 1 16.0784 8.0443 12.0196
425 1 16.0888 8.05472 16.0261
426 1 16.0993 8.06513 20.0326
427 1 16.1097 8.07554 24.0391
428 1 16.1201 8.08595 28.0456
429 1 16.1306 8.09637 32.0522
430 1 16.141 8.10678 36.0587
431 1 16.0575 12.0196 0
432 1 16.0679 12.03 4.00652
433 1 16.0784 12.0404 8.01304
434 1 16.0888 12.0508 12.0196
435 1 16.0993 12.0612 16.0261
436 1 16.1097 12.0717 20.0326
437 1 16.1201 12.0821 24.0391
438 1 16.1306 12.0925 28.0456
439 1 16.141 12.1029 32.0522
440 1 16.1515 12.1133 36.0587
441 1 16.0679 16.0261 0
442 1 16.0784 16.0365 4.00652
443 1 16.0888 16.047 8.01304
444 1 16.0993 16.0574 12.0196
445 1 16.1097 16.0678 16.0261
446 1 16.1201 16.0782 20.0326
447 1 16.1306 16.0886 24.0391
448 1 16.141 16.099 28.0456
449 1 16.1515 16.1094 32.0522
450 1 16.1619 16.1198 36.0587
451 1 16.0784 20.0327 0
452 1 16.0888 20.0431 4.00652
453 1 16.0993 20.0535 8.01304
454 1 16.1097 20.0639 12.0196
455 1 16.1201 20.0743 16.0261
456 1 16.1306 20.0847 20.0326
457 1 16.141 20.0951 24.0391
458 1 16.1515 20.1056 28.0456
459 1 16.1619 20.116 32.0522
460 1 16.1723 20.1264 36.0587
461 1 16.0888 24.0392 0
462 1 16.0993 24.0496 4.00652
463 1 16.1097 24.06 8.01304
464 1 16.1201 24.0704 12.0196
465 1 16.1306 24.0808 16.0261
466 1 16.141 24.0913 20.0326
467 1 16.1515 24.1017 24.0391
468 1 16.1619 24.1121 28.0456
469 1 16.1723 24.1225 32.0522
470 1 16.1828 24.1329 36.0587
471 1 16.0993 28.0457 0
472 1 16.1097 28.0561 4.00652
473 1 16.1201 28.0666 8.01304
474 1 16.1306 28.077 12.0196
475 1 16.141 28.0874 16.0261
476 1 16.1515 28.0978 20.0326
477 1 16.1619 28.1082 24.0391
478 1 16.1723 28.1186 28.0456
479 1 16.1828 28.129 32.0522
480 1 16.1932 28.1394 36.0587
481 1 16.1097 32.0523 0
482 1 16.1201 32.0627 4.00652
483 1 16.1306 32.0731 8.01304
484 1 16.141 32.0835 12.0196
485 1 16.1515 32.0939 16.0261
486 1 16.1619 32.1043 20.0326
487 1 16.1723 32.1147 24.0391
488 1 16.1828 32.1251 28.0456
489 1 16.1932 32.1356 32.0522
490 1 16.2037 32.146 36.0587
491 1 16.1201 36.0588 0
492 1 16.1306 36.0692 4.00652
493 1 16.141 36.0796 8.01304
494 1 16.1515 36.09 12.0196
495 1 16.1619 36.1004 16.0261
496 1 16.1723 36.1109 20.0326
497 1 16.1828 36.1213 24.0391
498 1 16.1932 36.1317 28.0456
499 1 16.2037 36.1421 32.0522
500 1 16.2141 36.1525 36.0587
501 1 20.0327 0 0
502 1 20.0432 0.010413 4.00652
503 1 20.0536 0.0208259 8.01304
504 1 20.1685 40.0966 12.0196
505 1 20.0745 0.0416518 16.0261
506 1 20.1893 40.1174 20.0326
507 1 20.0954 0.0624777 24.0391
508 1 20.2102 40.1382 28.0456
509 1 20.1163 0.0833036 32.0522
510 1 20.2311 40.159 36.0587
511 1 20.0432 4.00653 0
512 1 20.0536 4.01695 4.00652
513 1 20.0641 4.02736 8.01304
514 1 20.0745 4.03777 12.0196
515 1 20.0849 4.04818 16.0261
516 1 20.0954 4.0586 20.0326
517 1 20.1058 4.06901 24.0391
518 1 20.1163 4.07942 28.0456
519 1 20.1267 4.08984 32.0522
520 1 20.1371 4.10025 36.0587
521 1 20.0536 8.01306 0
522 1 20.0641 8.02348 4.00652
523 1 20.0745 8.03389 8.01304
524 1 20.0849 8.0443 12.0196
525 1 20.0954 8.05472 16.0261
526 1 20.1058 8.06513 20.0326
527 1 20.1163 8.07554 24.0391
528 1 20.1267 8.08595 28.0456
529 1 20.1371 8.09637 32.0522
530 1 20.1476 8.10678 36.0587
531 1 20.0641 12.0196 0
532 1 20.0745 12.03 4.00652
533 1 20.0849 12.0404 8.01304
534 1 20.0954 12.0508 12.0196
535 1 20.1058 12.0612 16.0261
536 1 20.1163 12.0717 20.0326
537 1 20.1267 12.0821 24.0391
538 1 20.1371 12.0925 28.0456
539 1 20.1476 12.1029 32.0522
540 1 20.158 12.1133 36.0587
541 1 20.0745 16.0261 0
542 1 20.0849 16.0365 4.00652
543 1 20.0954 16.047 8.01304
544 1 20.1058 16.0574 12.0196
545 1 20.1163 16.0678 16.0261
546 1 20.1267 16.0782 20.0326
547 1 20.1371 16.0886 24.0391
548 1 20.1476 16.099 28.0456
549 1 20.158 16.1094 32.0522
550 1 20.1685 16.1198 36.0587
551 1 20.0849 20.0327 0
552 1 20.0954 20.0431 4.00652
553 1 20.1058 20.0535 8.01304
554 1 20.1163 20.0639 12.0196
555 1 20.1267 20.0743 16.0261
556 1 20.1371 20.0847 20.0326
557 1 20.1476 20.0951 24.0391
558 1 20.158 20.1056 28.0456
559 1 20.1685 20.116 32.0522
560 1 20.1789 20.1264 36.0587
561 1 20.0954 24.0392 0
562 1 20.1058 24.0496 4.00652
563 1 20.1163 24.06 8.01304
564 1 20.1267 24.0704 12.0196
565 1 20.1371 24.0808 16.0261
566 1 20.1476 24.0913 20.0326
567 1 20.158 24.1017 24.0391
568 1 20.1685 24.1121 28.0456
569 1 20.1789 24.1225 32.0522
570 1 20.1893 24.1329 36.0587
571 1 20.1058 28.0457 0
572 1 20.1163 28.0561 4.00652
573 1 20.1267 28.0666 8.01304
574 1 20.1371 28.077 12.0196
575 1 20.1476 28.0874 16.0261
576 1 20.158 28.0978 20.0326
577 1 20.1685 28.1082 24.0391
578 1 20.1789 28.1186 28.0456
579 1 20.1893 28.129 32.0522
580 1 20.1998 28.1394 36.0587
581 1 20.1163 32.0523 0
582 1 20.1267 32.0627 4.00652
583 1 20.1371 32.0731 8.01304
584 1 20.1476 32.0835 12.0196
585 1 20.158 32.0939 16.0261
586 1 20.1685 32.1043 20.0326
587 1 20.1789 32.1147 24.0391
588 1 20.1893 32.1251 28.0456
589 1 20.1998 32.1356 32.0522
590 1 20.2102 32.146 36.0587
591 1 20.1267 36.0588 0
592 1 20.1371 36.0692 4.00652
593 1 20.1476 36.0796 8.01304
594 1 20.158 36.09 12.0196
595 1 20.1685 36.1004 16.0261
596 1 20.1789 36.1109 20.0326
597 1 20.1893 36.1213 24.0391
598 1 20.1998 36.1317 28.0456
599 1 20.2102 36.1421 32.0522
600 1 20.2207 36.1525 36.0587
601 1 24.0393 0 0
602 1 24.0497 0.010413 4.00652
603 1 24.0602 0.0208259 8.01304
604 1 24.175 40.0966 12.0196
605 1 24.081 0.0416518 16.0261
606 1 24.1959 40.1174 20.0326
607 1 24.1019 0.0624777 24.0391
608 1 24.2168 40.1382 28.0456
609 1 24.1228 0.0833036 32.0522
610 1 24.2376 40.159 36.0587
611 1 24.0497 4.00653 0
612 1 24.0602 4.01695 4.00652
613 1 24.0706 4.02736 8.01304
614 1 24.081 4.03777 12.0196
615 1 24.0915 4.04818 16.0261
616 1 24.1019 4.0586 20.0326
617 1 24.1124 4.06901 24.0391
618 1 24.1228 4.07942 28.0456
619 1 24.1332 4.08984 32.0522
620 1 24.1437 4.10025 36.0587
621 1 24.0602 8.01306 0
622 1 24.0706 8.02348 4.00652
623 1 24.081 8.03389 8.01304
624 1 24.0915 8.0443 12.0196
625 1 24.1019 8.05472 16.0261
626 1 24.1124 8.06513 20.0326
627 1 24.1228 8.07554 24.0391
628 1 24.1332 8.08595 28.0456
629 1 24.1437 8.09637 32.0522
630 1 24.1541 8.10678 36.0587
631 1 24.0706 12.0196 0
632 1 24.081 12.03 4.00652
633 1 24.0915 12.0404 8.01304
634 1 24.1019 12.0508 12.0196
635 1 24.1124 12.0612 16.0261
636 1 24.1228 12.0717 20.0326
637 1 24.1332 12.0821 24.0391
638 1 24.1437 12.0925 28.0456
639 1 24.1541 12.1029 32.0522
640 1 24.1646 12.1133 36.0587
641 1 24.081 16.0261 0
642 1 24.0915 16.0365 4.00652
643 1 24.1019 16.047 8.01304
644 1 24.1124 16.0574 12.0196
645 1 24.1228 16.0678 16.0261
646 1 24.1332 16.0782 20.0326
647 1 24.1437 16.0886 24.0391
648 1 24.1541 16.099 28.0456
649 1 24.1646 16.1094 32.0522
650 1 24.175 16.1198 36.0587
651 1 24.0915 20.0327 0
652 1 24.1019 20.0431 4.00652
653 1 24.1124 20.0535 8.01304
654 1 24.1228 20.0639 12.0196
655 1 24.1332 20.0743 16.0261
656 1 24.1437 20.0847 20.0326
657 1 24.1541 20.0951 24.0391
658 1 24.1646 20.1056 28.0456
659 1 24.175 20.116 32.0522
660 1 24.1854 20.1264 36.0587
661 1 24.1019 24.0392 0
662 1 24.1124 24.0496 4.00652
663 1 24.1228 24.06 8.01304
664 1 24.1332 24.0704 12.0196
665 1 24.1437 24.0808 16.0261
666 1 24.1541 24.0913 20.0326
667 1 24.1646 24.1017 24.0391
668 1 24.175 24.1121 28.0456
669 1 24.1854 24.1225 32.0522
670 1 24.1959 24.1329 36.0587
671 1 24.1124 28.0457 0
672 1 24.1228 28.0561 4.00652
673 1 24.1332 28.0666 8.01304
674 1 24.1437 28.077 12.0196
675 1 24.1541 28.0874 16.0261
676 1 24.1646 28.0978 20.0326
677 1 24.175 28.1082 24.0391
678 1 24.1854 28.1186 28.0456
679 1 24.1959 28.129 32.0522
680 1 24.2063 28.1394 36.0587
681 1 24.1228 32.0523 0
682 1 24.1332 32.0627 4.00652
683 1 24.1437 32.0731 8.01304
684 1 24.1541 32.0835 12.0196
685 1 24.1646 32.0939 16.0261
686 1 24.175 32.1043 20.0326
687 1 24.1854 32.1147 24.0391
688 1 24.1959 32.1251 28.0456
689 1 24.2063 32.1356 32.0522
690 1 24.2168 32.146 36.0587
691 1 24.1332 36.0588 0
692 1 24.1437 36.0692 4.00652
693 1 24.1541 36.0796 8.01304
694 1 24.1646 36.09 12.0196
695 1 24.175 36.1004 16.0261
696 1 24.1854 36.1109 20.0326
697 1 24.1959 36.1213 24.0391
698 1 24.2063 36.1317 28.0456
699 1 24.2168 36.1421 32.0522
700 1 24.2272 36.1525 36.0587
701 1 28.0458 0 0
702 1 28.0563 0.010413 4.00652
703 1 28.0667 0.0208259 8.01304
704 1 28.1815 40.0966 12.0196
705 1 28.0876 0.0416518 16.0261
706 1 28.2024 40.1174 20.0326
707 1 28.1085 0.0624777 24.0391
708 1 28.2233 40.1382 28.0456
709 1 28.1293 0.0833036 32.0522
710 1 28.2442 40.159 36.0587
711 1 28.0563 4.00653 0
712 1 28.0667 4.01695 4.00652
713 1 28.0771 4.02736 8.01304
714 1 28.0876 4.03777 12.0196
715 1 28.098 4.04818 16.0261
716 1 28.1085 4.0586 20.0326
717 1 28.1189 4.06901 24.0391
718 1 28.1293 4.07942 28.0456
719 1 28.1398 4.08984 32.0522
720 1 28.1502 4.10025 36.0587
721 1 28.0667 8.01306 0
722 1 28.0771 8.02348 4.00652
723 1 28.0876 8.03389 8.01304
724 1 28.098 8.0443 12.0196
725 1 28.1085 8.05472 16.0261
726 1 28.1189 8.06513 20.0326
727 1 28.1293 8.07554 24.0391
728 1 28.1398 8.08595 28.0456
729 1 28.1502 8.09637 32.0522
730 1 28.1607 8.10678 36.0587
731 1 28.0771 12.0196 0
732 1 28.0876 12.03 4.00652
733 1 28.098 12.0404 8.01304
734 1 28.1085 12.0508 12.0196
735 1 28.1189 12.0612 16.0261
736 1 28.1293 12.0717 20.0326
737 1 28.1398 12.0821 24.0391
738 1 28.1502 12.0925 28.0456
739 1 28.1607 12.1029 32.0522
740 1 28.1711 12.1133 36.0587
741 1 28.0876 16.0261 0
742 1 28.098 16.0365 4.00652
743 1 28.1085 16.047 8.01304
744 1 28.1189 16.0574 12.0196
745 1 28.1293 16.0678 16.0261
746 1 28.1398 16.0782 20.0326
747 1 28.1502 16.0886 24.0391
748 1 28.1607 16.099 28.0456
749 1 28.1711 16.1094 32.0522
750 1 28.1815 16.1198 36.0587
751 1 28.098 20.0327 0
752 1 28.1085 20.0431 4.00652
753 1 28.1189 20.0535 8.01304
754 1 28.1293 20.0639 12.0196
755 1 28.1398 20.0743 16.0261
756 1 28.1502 20.0847 20.0326
757 1 28.1607 20.0951 24.0391
758 1 28.1711 20.1056 28.0456
759 1 28.1815 20.116 32.0522
760 1 28.192 20.1264 36.0587
761 1 28.1085 24.0392 0
762 1 28.1189 24.0496 4.00652
763 1 28.1293 24.06 8.01304
764 1 28.1398 24.0704 12.0196
765 1 28.1502 24.0808 16.0261
766 1 28.1607 24.0913 20.0326
767 1 28.1711 24.1017 24.0391
768 1 28.1815 24.1121 28.0456
769 1 28.192 24.1225 32.0522
770 1 28.2024 24.1329 36.0587
771 1 28.1189 28.0457 0
772 1 28.1293 28.0561 4.00652
773 1 28.1398 28.0666 8.01304
774 1 28.1502 28.077 12.0196
775 1 28.1607 28.0874 16.0261
776 1 28.1711 28.0978 20.0326
777 1 28.1815 28.1082 24.0391
778 1 28.192 28.1186 28.0456
779 1 28.2024 28.129 32.0522
780 1 28.2129 28.1394 36.0587
781 1 28.1293 32.0523 0
782 1 28.1398 32.0627 4.00652
783 1 28.1502 32.0731 8.01304
784 1 28.1607 32.0835 12.0196
785 1 28.1711 32.0939 16.0261
786 1 28.1815 32.1043 20.0326
787 1 28.192 32.1147 24.0391
788 1 28.2024 32.1251 28.0456
789 1 28.2129 32.1356 32.0522
790 1 28.2233 32.146 36.0587
791 1 28.1398 36.0588 0
792 1 28.1502 36.0692 4.00652
793 1 28.1607 36.0796 8.01304
794 1 28.1711 36.09 12.0196
795 1 28.1815 36.1004 16.0261
796 1 28.192 36.1109 20.0326
797 1 28.2024 36.1213 24.0391
798 1 28.2129 36.1317 28.0456
799 1 28.2233 36.1421 32.0522
800 1 28.2337 36.1525 36.0587
801 1 32.0524 0 0
802 1 32.0628 0.010413 4.00652
803 1 32.0732 0.0208259 8.01304
804 1 32.1881 40.0966 12.0196
805 1 32.0941 0.0416518 16.0261
806 1 32.209 40.1174 20.0326
807 1 32.115 0.0624777 24.0391
808 1 32.2299 40.1382 28.0456
809 1 32.1359 0.0833036 32.0522
810 1 32.2507 40.159 36.0587
811 1 32.0628 4.00653 0
812 1 32.0732 4.01695 4.00652
813 1 32.0837 4.02736 8.01304
814 1 32.0941 4.03777 12.0196
815 1 32.1046 4.04818 16.0261
816 1 32.115 4.0586 20.0326
817 1 32.1255 4.06901 24.0391
818 1 32.1359 4.07942 28.0456
819 1 32.1463 4.08984 32.0522
820 1 32.1568 4.10025 36.0587
821 1 32.0732 8.01306 0
822 1 32.0837 8.02348 4.00652
823 1 32.0941 8.03389 8.01304
824 1 32.1046 8.0443 12.0196
825 1 32.115 8.05472 16.0261
826 1 32.1255 8.06513 20.0326
827 1 32.1359 8.07554 24.0391
828 1 32.1463 8.08595 28.0456
829 1 32.1568 8.09637 32.0522
830 1 32.1672 8.10678 36.0587
831 1 32.0837 12.0196 0
832 1 32.0941 12.03 4.00652
833 1 32.1046 12.0404 8.01304
834 1 32.115 12.0508 12.0196
835 1 32.1254 12.0612 16.0261
836 1 32.1359 12.0717 20.0326
837 1 32.1463 12.0821 24.0391
838 1 32.1568 12.0925 28.0456
839 1 32.1672 12.1029 32.0522
840 1 32.1776 12.1133 36.0587
841 1 32.0941 16.0261 0
842 1 32.1046 16.0365 4.00652
843 1 32.115 16.047 8.01304
844 1 32.1254 16.0574 12.0196
845 1 32.1359 16.0678 16.0261
846 1 32.1463 16.0782 20.0326
847 1 32.1568 16.0886 24.0391
848 1 32.1672 16.099 28.0456
849 1 32.1777 16.1094 32.0522
850 1 32.1881 16.1198 36.0587
851 1 32.1046 20.0327 0
852 1 32.115 20.0431 4.00652
853 1 32.1255 20.0535 8.01304
854 1 32.1359 20.0639 12.0196
855 1 32.1463 20.0743 16.0261
856 1 32.1568 20.0847 20.0326
857 1 32.1672 20.0951 24.0391
858 1 32.1777 20.1056 28.0456
859 1 32.1881 20.116 32.0522
860 1 32.1985 20.1264 36.0587
861 1 32.115 24.0392 0
862 1 32.1255 24.0496 4.00652
863 1 32.1359 24.06 8.01304
864 1 32.1463 24.0704 12.0196
865 1 32.1568 24.0808 16.0261
866 1 32.1672 24.0913 20.0326
867 1 32.1777 24.1017 24.0391
868 1 32.1881 24.1121 28.0456
869 1 32.1985 24.1225 32.0522
870 1 32.209 24.1329 36.0587
871 1 32.1255 28.0457 0
872 1 32.1359 28.0561 4.00652
873 1 32.1463 28.0666 8.01304
874 1 32.1568 28.077 12.0196
875 1 32.1672 28.0874 16.0261
876 1 32.1777 28.0978 20.0326
877 1 32.1881 28.1082 24.0391
878 1 32.1985 28.1186 28.0456
879 1 32.209 28.129 32.0522
880 1 32.2194 28.1394 36.0587
881 1 32.1359 32.0523 0
882 1 32.1463 32.0627 4.00652
883 1 32.1568 32.0731 8.01304
884 1 32.1672 32.0835 12.0196
885 1 32.1777 32.0939 16.0261
886 1 32.1881 32.1043 20.0326
887 1 32.1985 32.1147 24.0391
888 1 32.209 32.1251 28.0456
889 1 32.2194 32.1356 32.0522
890 1 32.2299 32.146 36.0587
891 1 32.1463 36.0588 0
892 1 32.1568 36.0692 4.00652
893 1 32.1672 36.0796 8.01304
894 1 32.1776 36.09 12.0196
895 1 32.1881 36.1004 16.0261
896 1 32.1985 36.1109 20.0326
897 1 32.209 36.1213 24.0391
898 1 32.2194 36.1317 28.0456
899 1 32.2299 36.1421 32.0522
900 1 32.2403 36.1525 36.0587
901 1 36.0589 0 0
902 1 36.0694 0.010413 4.00652
903 1 36.0798 0.0208259 8.01304
904 1 36.1946 40.0966 12.0196
905 1 36.1007 0.0416518 16.0261
906 1 36.2155 40.1174 20.0326
907 1 36.1216 0.0624777 24.0391
908 1 36.2364 40.1382 28.0456
909 1 36.1424 0.0833036 32.0522
910 1 36.2573 40.159 36.0587
911 1 36.0694 4.00653 0
912 1 36.0798 4.01695 4.00652
913 1 36.0902 4.02736 8.01304
914 1 36.1007 4.03777 12.0196
915 1 36.1111 4.04818 16.0261
916 1 36.1216 4.0586 20.0326
917 1 36.132 4.06901 24.0391
918 1 36.1424 4.07942 28.0456
919 1 36.1529 4.08984 32.0522
920 1 36.1633 4.10025 36.0587
921 1 36.0798 8.01306 0
922 1 36.0902 8.02348 4.00652
923 1 36.1007 8.03389 8.01304
924 1 36.1111 8.0443 12.0196
925 1 36.1216 8.05472 16.0261
926 1 36.132 8.06513 20.0326
927 1 36.1424 8.07554 24.0391
928 1 36.1529 8.08595 28.0456
929 1 36.1633 8.09637 32.0522
930 1 36.1738 8.10678 36.0587
931 1 36.0902 12.0196 0
932 1 36.1007 12.03 4.00652
933 1 36.1111 12.0404 8.01304
934 1 36.1216 12.0508 12.0196
935 1 36.132 12.0612 16.0261
936 1 36.1424 12.0717 20.0326
937 1 36.1529 12.0821 24.0391
938 1 36.1633 12.0925 28.0456
939 1 36.1738 12.1029 32.0522
940 1 36.1842 12.1133 36.0587
941 1 36.1007 16.0261 0
942 1 36.1111 16.0365 4.00652
943 1 36.1216 16.047 8.01304
944 1 36.132 16.0574 12.0196
945 1 36.1424 16.0678 16.0261
946 1 36.1529 16.0782 20.0326
947 1 36.1633 16.0886 24.0391
948 1 36.1738 16.099 28.0456
949 1 36.1842 16.1094 32.0522
950 1 36.1946 16.1198 36.0587
951 1 36.1111 20.0327 0
952 1 36.1216 20.0431 4.00652
953 1 36.132 20.0535 8.01304
954 1 36.1424 20.0639 12.0196
955 1 36.1529 20.0743 16.0261
956 1 36.1633 20.0847 20.0326
957 1 36.1738 20.0951 24.0391
958 1 36.1842 20.1056 28.0456
959 1 36.1946 20.116 32.0522
960 1 36.2051 20.1264 36.0587
961 1 36.1216 24.0392 0
962 1 36.132 24.0496 4.00652
963 1 36.1424 24.06 8.01304
964 1 36.1529 24.0704 12.0196
965 1 36.1633 24.0808 16.0261
966 1 36.1738 24.0913 20.0326
967 1 36.1842 24.1017 24.0391
968 1 36.1946 24.1121 28.0456
969 1 36.2051 24.1225 32.0522
970 1 36.2155 24.1329 36.0587
971 1 36.132 28.0457 0
972 1 36.1424 28.0561 4.00652
973 1 36.1529 28.0666 8.01304
974 1 36.1633 28.077 12.0196
975 1 36.1738 28.0874 16.0261
976 1 36.1842 28.0978 20.0326
977 1 36.1946 28.1082 24.0391
978 1 36.2051 28.1186 28.0456
979 1 36.2155 28.129 32.0522
980 1 36.226 28.1394 36.0587
981 1 36.1424 32.0523 0
982 1 36.1529 32.0627 4.00652
983 1 36.1633 32.0731 8.01304
984 1 36.1738 32.0835 12.0196
985 1 36.1842 32.0939 16.0261
986 1 36.1946 32.1043 20.0326
987 1 36.2051 32.1147 24.0391
988 1 36.2155 32.1251 28.0456
989 1 36.226 32.1356 32.0522
990 1 36.2364 32.146 36.0587
991 1 36.1529 36.0588 0
992 1 36.1633 36.0692 4.00652
993 1 36.1738 36.0796 8.01304
994 1 36.1842 36.09 12.0196
995 1 36.1946 36.1004 16.0261
996 1 36.2051 36.1109 20.0326
997 1 36.2155 36.1213 24.0391
998 1 36.226 36.1317 28.0456
999 1 36.2364 36.1421 32.0522
1000 1 36.2468 36.1525 36.0587
1001 9 2.06297 2.0576 2.05226
1002 9 2.07341 2.06801 6.05878
1003 9 2.08385 2.07842 10.0653
1004 9 2.09429 2.08884 14.0718
1005 9 2.10473 2.09925 18.0783
1006 9 2.11517 2.10966 22.0849
1007 9 2.12561 2.12007 26.0914
1008 9 2.13605 2.13049 30.0979
1009 9 2.14649 2.1409 34.1044
1010 9 2.15693 2.15131 38.1109
1011 9 2.07341 6.06413 2.05226
1012 9 2.08385 6.07454 6.05878
1013 9 2.09429 6.08496 10.0653
1014 9 2.10473 6.09537 14.0718
1015 9 2.11517 6.10578 18.0783
1016 9 2.12561 6.11619 22.0849
1017 9 2.13605 6.12661 26.0914