ITEM: TIMESTEP
25100
ITEM: NUMBER OF ATOMS
7200
ITEM: BOX BOUNDS xy xz yz pp pp pp
0.0000000000000000e+00 3.5072307586699999e+01 0.0000000000000000e+00
0.0000000000000000e+00 5.8116638183600003e+01 0.0000000000000000e+00
6.4945514966439077e-03 4.9458951920704195e+01 0.0000000000000000e+00
ITEM: ATOMS id type x y z
1 2 5.05949 54.5175 37.296
2 2 28.0731 37.2288 0.188875
3 2 27.9738 25.6552 41.4044
4 2 28.0465 25.5347 33.3073
5 2 28.0307 25.5104 24.7838
6 2 27.9129 25.3282 0.174389
7 2 28.1 13.9221 41.3957
8 2 27.9407 13.9346 24.8932
9 2 27.8025 14.0356 16.7043
10 2 28.0776 13.7933 8.5026
11 2 27.9363 2.38048 41.3081
12 2 28.0597 2.20662 33.2174
13 2 27.9446 2.18496 24.9598
14 2 27.969 37.0036 8.39697
15 2 28.1876 2.24625 16.6979
16 2 22.1104 49.0773 24.7589
17 2 22.0524 48.6681 16.8525
18 2 22.3064 48.7144 8.33797
19 2 22.0596 48.789 0.396993
20 2 22.2127 37.1632 33.2478
21 2 22.1101 37.1579 16.8321
22 2 22.0795 37.0458 8.55704
23 2 22.3042 37.1762 0.377503
24 2 22.1787 25.5463 41.3444
25 2 22.1234 25.4435 25.1227
26 2 22.0705 13.9556 24.9571
27 2 22.4413 13.9605 16.6998
28 2 27.9749 2.17398 8.45431
29 2 28.6188 37.1389 16.708
30 2 28.1033 37.2501 33.3987
31 2 27.9768 48.7557 0.199994
32 2 1.64478 28.3715 0.203012
33 2 1.67964 16.6335 33.2942
34 2 1.64875 16.9204 25.084
35 2 1.78185 16.8108 16.6431
36 2 1.80988 16.8981 8.68839
37 2 1.6619 5.08996 41.1022
38 2 1.7768 5.20553 33.3971
39 2 1.46967 5.17544 8.54973
40 2 1.71339 5.09577 0.530804
41 2 33.8925 48.3939 41.4525
42 2 33.8749 48.7469 24.9198
43 2 33.814 48.5785 16.7598
44 2 33.7517 48.8228 0.302603
45 2 33.8011 37.0922 41.2925
46 2 33.6583 37.0689 33.078
47 2 33.8209 25.4439 24.9058
48 2 33.7524 25.5693 16.7152
49 2 33.8169 25.5816 8.59309
50 2 33.7389 25.4552 0.241663
51 2 33.7131 14.1047 25.1194
52 2 33.8316 13.7787 8.41386
53 2 33.6598 2.26681 41.4271
54 2 33.8029 2.26785 33.1668
55 2 33.9134 2.22504 24.8987
56 2 34.1157 2.23578 0.331848
57 2 27.9724 48.944 33.3083
58 2 28.0572 48.8203 16.7007
59 2 22.245 13.7159 8.46647
60 2 22.2223 2.28803 41.5577
61 2 22.1481 2.37618 16.663
62 2 22.2128 2.23179 8.57835
63 2 10.3797 25.5061 32.902
64 2 10.3947 25.5788 0.112255
65 2 10.3563 13.7985 33.22
66 2 10.4411 13.7367 25.0548
67 2 10.4734 13.7229 16.7105
68 2 10.5153 13.8659 0.384084
69 2 10.5465 2.28398 41.5547
70 2 10.7114 2.04484 33.3477
71 2 10.4613 2.41464 24.7998
72 2 10.4614 2.53588 16.8392
73 2 10.7997 2.41254 0.273982
74 2 4.59183 48.8072 33.2277
75 2 4.68929 48.6189 16.6562
76 2 4.68789 48.7936 0.266882
77 2 4.55742 37.1066 41.4452
78 2 4.67317 37.0516 33.0721
79 2 4.82503 37.0466 24.9428
80 2 4.50692 37.1467 16.7188
81 2 4.76522 36.9713 8.39904
82 2 4.75264 37.0984 0.256227
83 2 4.60591 25.3031 24.9814
84 2 4.57053 25.2732 8.47912
85 2 4.52346 25.5584 0.128518
86 2 4.71908 13.8935 41.4023
87 2 4.76184 13.8305 24.9927
88 2 4.58592 2.1544 24.8154
89 2 4.57637 2.2401 8.30252
90 2 10.4084 25.5305 41.7181
91 2 2.04176 28.3994 8.56497
92 2 10.3013 37.1252 0.0613764
93 2 10.4643 37.3042 41.2651
94 2 22.2815 2.02846 0.165296
95 2 16.388 48.7167 33.1101
96 2 16.3976 48.7311 16.5492
97 2 16.5566 48.6656 8.38684
98 2 16.2539 48.602 0.151541
99 2 16.2591 37.1843 41.4823
100 2 16.3018 37.3061 33.3684
101 2 16.1393 37.1665 24.81
102 2 16.2502 37.2024 16.7883
103 2 16.3251 37.1497 8.51665
104 2 16.3191 37.3278 0.0866296
105 2 16.1161 25.489 41.2994
106 2 16.3777 25.3193 33.2915
107 2 16.4784 25.6147 24.8932
108 2 16.4904 25.245 8.45997
109 2 16.3674 13.8586 41.5029
110 2 16.2489 13.9126 33.1551
111 2 16.3027 13.7978 16.5975
112 2 16.4721 13.805 8.54044
113 2 16.2994 2.3065 41.3858
114 2 16.3439 2.37319 8.55108
115 2 16.4161 2.2305 0.311061
116 2 10.4986 48.6975 33.2935
117 2 10.413 48.8447 24.7653
118 2 10.5062 48.7417 16.7189
119 2 10.8124 48.5607 8.50857
120 2 10.2826 48.7175 0.0743909
121 2 10.4925 37.1927 33.4121
122 2 1.62638 28.3618 24.7492
123 2 1.6495 28.4903 41.5603
124 2 1.74388 40.049 0.402027
125 2 30.9126 5.00146 32.9712
126 2 30.8888 5.21361 0.0435107
127 2 25.046 51.4417 41.5441
128 2 25.0443 51.747 33.2576
129 2 25.0813 51.6741 25.0034
130 2 25.1836 51.6123 16.6383
131 2 25.4814 40.0511 16.8363
132 2 25.0384 39.9529 0.0848001
133 2 25.1537 28.4577 41.3391
134 2 25.0623 28.5336 33.3069
135 2 25.0259 28.2249 8.55584
136 2 25.4286 16.8997 41.4026
137 2 25.0245 16.7673 33.3739
138 2 25.0141 16.7172 16.5764
139 2 25.0855 16.8608 8.42959
140 2 25.0378 5.25328 41.2553
141 2 25.3535 5.1717 16.585
142 2 25.3117 5.17025 0.374898
143 2 19.1491 51.728 41.3482
144 2 19.2348 51.6388 32.9538
145 2 19.2213 51.7859 25.0146
146 2 19.1867 51.6394 0.325281
147 2 19.4586 40.0475 33.2568
148 2 19.426 40.1026 25.1436
149 2 19.6364 39.9251 8.50142
150 2 19.1729 40.0382 0.212705
151 2 19.3399 28.5395 33.1531
152 2 30.8646 5.33106 41.5645
153 2 19.2161 28.32 16.6283
154 2 30.8427 16.7922 16.9613
155 2 30.8859 16.7447 33.2085
156 2 2.04318 34.1537 37.275
157 2 2.07865 34.1702 28.8847
158 2 2.05906 34.1278 20.9325
159 2 1.98706 34.1404 12.6595
160 2 1.9674 34.1707 4.22941
161 2 1.88367 22.5383 45.6713
162 2 2.03102 22.5978 37.254
163 2 2.08179 22.5167 29.1509
164 2 1.67924 22.561 20.6684
165 2 2.0622 22.4245 12.6418
166 2 1.59044 22.6472 4.39422
167 2 1.90239 10.8489 45.4743
168 2 2.07585 10.856 37.4216
169 2 1.8171 10.805 12.5152
170 2 31.0808 51.6128 41.2872
171 2 30.9912 51.7634 24.9232
172 2 30.8138 40.0963 41.422
173 2 30.9457 39.9585 33.3209
174 2 30.9844 39.9671 24.9813
175 2 31.2104 40.0892 16.6082
176 2 31.2512 40.0112 8.50755
177 2 30.9343 40.0706 0.252827
178 2 31.0597 28.5643 41.5302
179 2 31.0241 28.4242 24.8909
180 2 30.8286 28.6159 16.8974
181 2 31.0065 28.5762 0.143159
182 2 31.0528 16.8001 41.3314
183 2 31.0263 16.8816 24.9381
184 2 4.93026 2.17506 0.355607
185 2 19.2172 28.4582 8.56195
186 2 19.2174 16.8632 41.4827
187 2 7.46831 39.9902 24.9993
188 2 7.72774 40.0949 16.7029
189 2 7.69089 40.0101 8.39707
190 2 7.48317 39.982 0.38019
191 2 7.41803 28.4375 41.329
192 2 7.4301 28.4102 33.1593
193 2 7.61523 28.5147 25.0067
194 2 7.71148 28.3628 8.49722
195 2 7.59522 28.3608 0.0871819
196 2 7.6227 16.7376 41.3467
197 2 7.97852 16.8997 25.0271
198 2 7.51524 16.8904 16.6945
199 2 7.55577 16.6873 8.42046
200 2 7.72178 5.01548 41.5015
201 2 7.43788 5.29759 33.13
202 2 7.60091 5.33403 24.6907
203 2 7.6183 5.30948 16.7756
204 2 7.47235 5.19821 8.28476
205 2 7.56435 5.05788 0.180472
206 2 1.80499 51.71 41.5159
207 2 1.76663 51.7524 33.2142
208 2 1.90626 51.7068 24.852
209 2 1.71621 51.9165 16.7516
210 2 1.73312 51.6855 8.454
211 2 1.69445 51.64 0.192759
212 2 2.07165 40.0476 16.6673
213 2 1.76573 39.9357 8.58895
214 2 7.48515 51.6788 0.162625
215 2 19.0333 28.3899 0.226693
216 2 7.43844 51.6908 8.55444
217 2 7.5299 51.6873 41.445
218 2 19.3974 16.8825 33.1179
219 2 19.4536 16.8221 17.0533
220 2 19.065 16.8493 0.216732
221 2 19.5708 5.12348 41.588
222 2 19.3677 5.16208 24.7981
223 2 19.3355 5.09044 16.7543
224 2 19.2392 5.34417 8.62741
225 2 13.1877 51.6522 41.3982
226 2 13.4539 51.5927 24.67
227 2 13.1332 51.7337 16.8732
228 2 13.37 51.7374 8.46422
229 2 13.6981 39.9818 41.3505
230 2 13.3615 40.0223 33.3505
231 2 13.3944 40.0002 16.7895
232 2 13.5758 40.0864 8.43737
233 2 13.2179 40.1895 0.0864111
234 2 13.4365 28.3161 41.5311
235 2 13.3073 28.4898 33.1997
236 2 13.3119 28.373 24.849
237 2 13.458 28.4341 8.44808
238 2 13.5783 16.7689 24.6443
239 2 13.3155 16.7276 16.6576
240 2 13.2917 16.6646 8.54014
241 2 13.5232 5.10254 33.3587
242 2 13.4081 5.15623 25.0181
243 2 13.539 5.22879 8.4485
244 2 13.4398 5.27706 0.394201
245 2 7.43819 51.6029 33.3821
246 2 34.1637 54.6026 33.0368
247 2 33.7167 54.5696 24.7645
248 2 33.7479 54.5276 16.7227
249 2 25.1878 22.7026 24.993
250 2 25.0708 22.6204 16.6465
251 2 25.1606 22.6539 8.3747
252 2 25.0614 22.4661 0.105284
253 2 25.408 10.8803 41.3728
254 2 24.9088 10.7996 24.9179
255 2 25.3835 11.1917 16.7247
256 2 25.0838 11.1189 8.57758
257 2 25.1292 11.1006 0.113643
258 2 19.7689 57.3944 41.4852
259 2 19.1848 57.6914 25.0729
260 2 19.3017 57.4046 8.66571
261 2 19.5126 57.4749 0.0999724
262 2 19.3276 45.8902 41.4127
263 2 19.2812 45.848 33.2643
264 2 19.1482 45.9189 24.8298
265 2 19.5562 45.9196 8.57872
266 2 19.3937 34.3813 25.0471
267 2 19.2375 34.3622 16.7609
268 2 19.307 34.4038 8.61099
269 2 19.1186 22.7052 25.0895
270 2 19.2165 22.7294 16.8076
271 2 19.4669 10.9133 33.172
272 2 19.0828 10.9685 25.1325
273 2 19.5826 10.9461 8.22646
274 2 19.1056 11.0483 0.216373
275 2 13.2503 57.3978 41.51
276 2 25.1462 22.7247 41.4683
277 2 13.7142 57.6429 33.1913
278 2 25.5254 34.431 0.230089
279 2 25.4737 34.285 16.6966
280 2 30.9408 45.8946 33.197
281 2 30.8813 45.8541 24.9483
282 2 30.9955 46.069 8.44714
283 2 31.2084 45.8844 0.340666
284 2 31.1919 34.2586 33.0694
285 2 31.1268 34.2619 16.8777
286 2 31.1181 22.4605 33.0601
287 2 31.0555 22.5681 25.0268
288 2 30.8215 22.6489 8.40023
289 2 30.9153 22.6143 0.225968
290 2 30.8354 11.1438 33.1544
291 2 31.2827 10.9437 24.9727
292 2 30.8083 11.081 16.7584
293 2 30.8622 10.9913 0.285696
294 2 25.1748 57.5725 41.4177
295 2 25.2482 57.4957 33.1286
296 2 25.0157 57.5802 24.8199
297 2 25.0403 57.7891 16.897
298 2 25.1282 57.4541 0.179551
299 2 25.1686 45.7479 41.3515
300 2 25.0049 45.7682 33.1528
301 2 25.0537 45.8728 24.9048
302 2 25.499 45.8763 16.7072
303 2 25.2033 46.1411 8.33754
304 2 25.202 45.9219 0.453344
305 2 25.103 34.3725 41.4388
306 2 25.2479 34.2308 33.1272
307 2 25.0392 34.2998 8.30829
308 2 31.0525 45.8682 41.5607
309 2 13.4346 57.6948 24.8602
310 2 13.4209 57.4704 8.34859
311 2 7.66603 34.095 8.37606
312 2 7.51589 34.2368 0.317054
313 2 7.5817 22.7092 41.5166
314 2 7.5962 22.5685 16.706
315 2 7.44223 22.5463 8.36939
316 2 7.48959 11.0893 33.0688
317 2 7.61499 11.0633 8.45912
318 2 7.54117 10.7933 0.102945
319 2 1.82534 57.3852 41.5443
320 2 1.56872 57.5162 32.9853
321 2 1.68324 57.5745 16.633
322 2 1.77264 57.5869 0.314883
323 2 1.80959 46.0045 41.428
324 2 1.73109 45.7965 33.2904
325 2 1.85288 45.8477 24.8857
326 2 1.66249 45.9566 8.42081
327 2 1.78105 34.0863 41.5369
328 2 2.06576 34.172 33.0891
329 2 1.98344 34.1896 25.0016
330 2 1.85526 34.2137 0.0917861
331 2 1.69049 22.4187 41.6143
332 2 1.75512 22.4159 16.7003
333 2 1.65462 22.6012 8.24175
334 2 1.62041 22.695 0.307153
335 2 1.74835 11.1558 41.5035
336 2 1.69476 11.0236 33.0883
337 2 1.80254 10.9821 24.9523
338 2 7.63017 34.2777 16.79
339 2 13.3474 57.6946 16.7675
340 2 7.87338 34.2621 24.9162
341 2 7.48945 45.837 0.337077
342 2 13.7422 57.4223 0.196782
343 2 13.3989 46.0827 41.4017
344 2 13.713 45.8789 33.131
345 2 13.2699 45.9712 16.6271
346 2 13.8289 45.776 8.52176
347 2 13.2221 45.658 0.29808
348 2 13.715 34.2589 41.3178
349 2 13.6882 34.23 24.8346
350 2 13.3285 34.27 16.5859
351 2 13.3854 34.142 8.63368
352 2 13.4107 34.1117 0.347927
353 2 13.4144 22.5784 41.3712
354 2 13.4601 22.5368 33.0643
355 2 13.3247 22.5133 24.9555
356 2 13.3246 22.438 8.2289
357 2 13.606 22.6894 0.25621
358 2 13.3752 10.8967 41.5508
359 2 13.2012 10.9951 33.05
360 2 13.3207 10.9295 25.1498
361 2 13.4917 10.9505 8.43215
362 2 7.44487 57.4353 41.5111
363 2 7.43383 57.5055 16.7422
364 2 7.53698 57.497 8.59097
365 2 7.83907 57.579 0.284042
366 2 7.67309 46.0568 25.0518
367 2 7.75723 45.9027 16.6712
368 2 8.01452 45.8575 8.48031
369 2 7.72229 34.33 33.1558
370 2 1.96142 34.2511 45.6565
371 2 30.9422 57.4569 0.101534
372 2 31.0294 57.5316 33.1432
373 2 28.0123 31.4941 0.392422
374 2 28.16 19.6515 41.4485
375 2 28.0076 19.7905 25.1514
376 2 28.128 19.6593 16.6066
377 2 28.1269 19.6657 0.17698
378 2 27.9193 7.87071 41.2557
379 2 27.894 7.97403 33.1949
380 2 27.9774 7.92862 25.1824
381 2 28.0222 8.09837 8.41079
382 2 22.3422 54.6127 41.5228
383 2 22.0978 54.4736 33.2028
384 2 22.2226 54.3983 25.0253
385 2 22.171 54.5922 16.6908
386 2 22.2666 54.5636 8.55835
387 2 22.2951 54.4383 0.131458
388 2 22.1082 42.8906 33.4027
389 2 22.1339 42.9553 16.8181
390 2 22.2734 42.886 8.47066
391 2 22.1984 42.9209 0.280188
392 2 22.3512 31.3264 8.4185
393 2 22.2258 31.349 0.161015
394 2 22.393 19.6606 41.3314
395 2 22.2423 19.7532 33.1583
396 2 22.0889 19.52 24.8838
397 2 22.4101 19.6771 16.6835
398 2 22.35 19.6365 0.120716
399 2 22.1604 8.10784 41.6022
400 2 28.3344 31.2989 8.57693
401 2 22.1591 8.12522 16.7126
402 2 28.1704 31.3146 16.6826
403 2 27.9997 31.1327 33.1777
404 2 34.3082 54.6412 0.377467
405 2 34.1057 43.1575 41.4621
406 2 34.1625 42.9305 33.1553
407 2 34.1351 42.8946 16.5597
408 2 33.8281 43.0212 0.200377
409 2 33.9375 31.3148 41.4333
410 2 33.8869 31.4017 24.9809
411 2 33.7002 31.2241 16.6842
412 2 33.9165 31.3715 8.55851
413 2 34.0617 19.6307 41.4193
414 2 33.8643 19.7324 25.0278
415 2 33.7444 19.634 16.818
416 2 34.2298 19.6036 8.48994
417 2 33.8152 8.07124 32.9629
418 2 33.7621 7.93971 24.8544
419 2 33.7915 7.79712 16.6373
420 2 34.0468 7.96135 -0.00400231
421 2 28.123 54.6771 41.4914
422 2 27.9541 54.501 33.2137
423 2 27.9794 54.5143 24.8629
424 2 28.0839 54.544 16.6092
425 2 28.0664 54.5581 8.55119
426 2 27.9567 42.8375 24.8262
427 2 28.2789 42.9606 16.7035
428 2 27.8526 42.8304 8.5994
429 2 28.0515 42.9777 0.333158
430 2 28.4401 31.1067 41.5283
431 2 27.855 31.333 25.0056
432 2 30.8107 57.3209 25.1164
433 2 22.1954 8.16696 8.42962
434 2 16.4586 54.6171 41.4679
435 2 10.6318 31.1619 41.4064
436 2 10.6553 31.2492 24.7582
437 2 10.7661 19.7167 41.4381
438 2 10.3533 19.5625 33.1731
439 2 10.4263 19.4741 0.125835
440 2 10.6611 7.96555 41.3785
441 2 10.395 8.16043 33.3202
442 2 10.4182 8.06584 24.7966
443 2 10.4689 8.10811 8.55287
444 2 10.4679 7.90501 0.276364
445 2 4.56584 43.0087 41.5078
446 2 4.74159 43.104 24.9796
447 2 4.65882 42.9062 16.6117
448 2 5.04176 42.8569 8.49561
449 2 4.56222 31.2493 41.5064
450 2 5.00212 31.196 33.153
451 2 5.08464 31.2762 25.042
452 2 4.63313 31.1143 16.7733
453 2 4.79786 31.3707 0.0364378
454 2 4.78354 19.7594 41.4192
455 2 4.73746 19.7496 33.2359
456 2 4.76712 19.5098 8.46493
457 2 4.75189 19.5948 0.205919
458 2 4.96821 8.03255 41.4429
459 2 4.67973 8.03774 16.6472
460 2 4.74386 8.23019 8.63281
461 2 4.9536 7.93177 0.273855
462 2 10.6641 42.8799 0.283327
463 2 22.1477 7.97357 0.276561
464 2 10.8636 42.8607 8.52648
465 2 10.5269 43.0049 32.9936
466 2 16.3103 54.5361 24.9047
467 2 16.3772 54.4686 16.8356
468 2 16.2348 54.608 8.40588
469 2 16.5678 54.5948 0.243287
470 2 16.3694 42.9278 41.3552
471 2 16.1335 42.9241 24.8173
472 2 16.5025 42.9904 16.731
473 2 16.7237 42.9554 8.50493
474 2 16.3624 42.8091 0.460164
475 2 16.3644 31.1499 41.5884
476 2 16.373 31.4741 33.329
477 2 16.2519 31.2744 24.849
478 2 16.6168 31.1933 16.6991
479 2 16.7984 31.2925 8.52175
480 2 16.3422 19.5698 41.3522
481 2 16.3004 19.6826 33.1267
482 2 16.2238 19.5936 16.8107
483 2 16.4848 19.6333 8.36173
484 2 16.1741 8.07597 24.9491
485 2 16.2109 8.04764 16.688
486 2 16.2331 8.09596 8.39704
487 2 10.3894 54.4927 32.9935
488 2 10.3148 54.5862 25.0217
489 2 10.7422 54.5932 16.6727
490 2 10.8218 54.6496 8.47515
491 2 10.5272 54.5478 0.342164
492 2 10.4238 42.9169 41.5546
493 2 10.466 42.7439 24.9919
494 2 2.13745 45.673 12.4812
495 2 2.12457 46.0738 20.8976
496 2 1.8309 45.8454 29.0138
497 2 28.2991 25.6911 12.6176
498 2 28.1752 13.8273 37.4049
499 2 28.4439 13.8747 12.5302
500 2 28.3688 14.0376 4.32767
501 2 28.4886 2.11693 45.5698
502 2 28.1229 2.22768 37.3088
503 2 28.4078 2.10443 29.1032
504 2 28.2046 2.29132 4.32533
505 2 22.4789 48.7667 45.5478
506 2 22.33 48.7747 37.4281
507 2 22.5905 48.7701 29.123
508 2 22.4555 48.7223 12.5427
509 2 22.2246 48.8033 4.37241
510 2 22.3454 37.1474 45.5928
511 2 22.2022 37.1346 37.2826
512 2 22.4799 37.252 29.1182
513 2 22.4233 37.0974 20.7477
514 2 22.4942 37.1153 12.6907
515 2 22.209 36.9008 4.17976
516 2 22.2643 25.6212 45.4754
517 2 22.1147 25.3974 37.4717
518 2 22.5322 25.3332 29.0457
519 2 22.3812 25.5515 20.8713
520 2 22.5026 25.5782 12.6026
521 2 22.3481 25.4772 4.37126
522 2 22.4581 13.9501 45.6115
523 2 22.317 13.8338 37.3679
524 2 28.0338 25.4769 20.8879
525 2 22.3788 13.9053 20.7209
526 2 28.3233 25.6092 28.8397
527 2 28.0897 37.3132 12.7178
528 2 33.9278 48.8358 37.2969
529 2 34.1253 48.7916 29.0675
530 2 34.0714 48.794 20.8905
531 2 34.1562 48.8943 12.5223
532 2 34.2685 48.7513 4.28846
533 2 34.1897 37.1431 45.6573
534 2 34.1579 37.1549 29.0718
535 2 34.3345 37.1266 20.8365
536 2 34.2065 37.0354 4.32978
537 2 33.7632 25.5142 45.605
538 2 33.658 25.5689 29.0712
539 2 34.1956 25.3812 21.0689
540 2 33.973 25.7026 4.38679
541 2 34.1634 13.7536 37.2872
542 2 34.0781 13.7842 28.9075
543 2 34.0198 13.9384 20.8455
544 2 34.0945 14.0193 12.6024
545 2 34.2335 2.25685 29.12
546 2 34.2037 2.17908 12.524
547 2 28.2245 48.8656 45.6684
548 2 28.243 48.7963 37.2943
549 2 28.1111 48.9313 20.7348
550 2 28.3374 48.6342 4.33503
551 2 28.2085 37.2983 45.5991
552 2 28.1496 37.0969 37.2276
553 2 28.2777 37.2632 28.9331
554 2 28.0846 37.1151 20.8436
555 2 28.0131 25.4421 45.6453
556 2 33.8416 48.8625 45.5883
557 2 22.4726 13.9763 4.32681
558 2 22.5692 2.21535 37.1062
559 2 10.8352 25.521 29.031
560 2 10.6604 25.3456 20.7856
561 2 10.5518 25.4893 12.5511
562 2 10.6036 25.4437 4.30575
563 2 10.6085 13.7837 45.4769
564 2 10.4804 13.8293 29.0002
565 2 10.7279 14.0606 20.847
566 2 10.9037 13.9298 12.5405
567 2 10.8245 2.17996 45.6577
568 2 10.5995 2.14121 37.2975
569 2 10.7011 2.45197 29.0487
570 2 10.2603 2.11083 20.9456
571 2 10.8397 2.2872 12.5465
572 2 4.62184 48.7976 45.5055
573 2 4.57656 48.7934 37.2267
574 2 4.54354 48.7234 20.8375
575 2 5.03348 48.639 4.47679
576 2 4.52051 37.2014 37.2418
577 2 4.78694 37.1098 29.1377
578 2 4.7479 37.1414 20.8562
579 2 5.0533 37.0798 12.5504
580 2 4.93123 37.0751 4.39068
581 2 4.60662 25.5001 45.7278
582 2 4.87764 25.4308 20.7883
583 2 4.5152 25.5105 12.5613
584 2 4.59912 25.3912 4.20184
585 2 5.11021 13.7576 45.7147
586 2 10.7344 25.445 37.081
587 2 22.2621 2.31389 45.6985
588 2 10.4494 25.4781 45.6189
589 2 10.8462 37.1876 12.6287
590 2 22.4181 2.10853 29.1761
591 2 22.511 2.1228 20.7343
592 2 22.4493 2.29852 12.8705
593 2 16.5377 48.8215 45.6783
594 2 16.6342 48.8924 37.1796
595 2 16.7082 48.6951 28.9848
596 2 16.7182 48.8445 20.9145
597 2 16.2152 48.7824 4.18125
598 2 16.3347 37.1709 45.5663
599 2 16.3598 37.1155 37.3493
600 2 16.6175 37.1509 29.0895
601 2 16.338 37.1472 20.8449
602 2 16.5219 37.1021 4.29939
603 2 16.5192 25.4543 45.6451
604 2 16.4884 25.6061 37.3265
605 2 16.5709 25.5521 29.0238
606 2 16.8125 13.8885 4.33507
607 2 16.368 2.39318 12.6258
608 2 16.634 2.16333 4.34368
609 2 10.6533 48.8523 45.5585
610 2 10.7285 48.4735 28.7327
611 2 10.7718 48.6313 20.7563
612 2 10.8235 48.7019 12.5047
613 2 10.9214 37.1302 45.5162
614 2 10.4814 37.1373 37.429
615 2 10.8402 37.1866 29.027
616 2 10.6179 37.0954 20.7658
617 2 10.7932 36.9378 4.40755
618 2 4.68458 14.0422 37.2516
619 2 2.05892 5.24863 4.17649
620 2 1.80713 5.29474 28.997
621 2 25.4569 16.8222 20.963
622 2 25.3464 16.8782 12.8102
623 2 25.0074 5.14359 45.3567
624 2 25.4247 5.15007 29.0352
625 2 25.3059 5.12785 20.9431
626 2 19.2728 51.7481 45.3709
627 2 19.5136 51.6162 37.5215
628 2 19.2232 51.7152 28.8389
629 2 19.6013 51.6741 12.644
630 2 19.4214 51.6754 4.36586
631 2 19.6262 40.1331 37.4062
632 2 19.6098 40.1606 20.7836
633 2 19.6716 39.9833 12.7231
634 2 19.589 28.4476 45.3947
635 2 19.1741 28.3259 37.3444
636 2 19.5606 28.3863 20.7686
637 2 19.2356 28.3607 12.4742
638 2 19.4157 28.4404 4.60973
639 2 19.7007 16.7211 45.4743
640 2 19.4166 16.8779 37.3419
641 2 19.265 16.783 20.8657
642 2 19.5902 16.6952 12.4828
643 2 19.7386 5.10309 45.6717
644 2 19.2893 5.19306 37.2068
645 2 19.3795 5.19719 29.3287
646 2 19.6474 5.10653 20.6445
647 2 19.5773 5.20954 12.7203
648 2 25.4869 16.5959 28.9866
649 2 19.7407 5.1129 4.31716
650 2 25.244 16.6911 45.4893
651 2 25.0211 28.4376 20.7793
652 2 31.1031 51.5509 45.706
653 2 31.1874 51.5371 28.998
654 2 31.2483 51.6531 20.7459
655 2 31.2211 51.7639 4.43942
656 2 31.2976 40.1056 45.885
657 2 31.2051 40.2148 37.0662
658 2 31.3963 40.2466 29.1786
659 2 31.2741 40.0431 12.5822
660 2 30.8064 28.4635 45.6098
661 2 31.0873 28.3669 29.0802
662 2 30.9371 28.4236 20.7721
663 2 31.2525 28.3989 4.43493
664 2 31.2384 16.5812 45.6315
665 2 31.1816 16.8667 37.2769
666 2 31.2061 16.7791 12.6867
667 2 31.3409 5.19477 37.1711
668 2 31.165 5.09313 20.7954
669 2 31.0941 5.25738 12.604
670 2 31.2316 5.1246 4.46281
671 2 25.3597 51.6755 37.0967
672 2 25.2889 51.5509 20.8994
673 2 25.4474 51.7869 4.34596
674 2 25.4646 39.986 20.8544
675 2 25.4945 40.0724 4.57406
676 2 25.2647 28.2872 45.5126
677 2 25.129 28.5385 37.4225
678 2 25.3085 28.275 29.2192
679 2 25.4745 28.3925 4.20715
680 2 1.79502 5.22684 20.8127
681 2 13.7599 51.6764 45.7694
682 2 13.7653 51.739 29.0064
683 2 7.81725 28.3113 12.7273
684 2 8.00853 28.2185 4.17665
685 2 7.68832 16.8313 37.2863
686 2 7.8884 16.7874 28.9017
687 2 7.82157 16.5739 20.8901
688 2 7.88091 5.02492 37.4452
689 2 7.74789 5.17707 20.6925
690 2 7.72368 5.3623 12.581
691 2 7.8251 5.21098 4.62953
692 2 1.90729 51.8181 37.2751
693 2 1.7694 51.5619 29.1653
694 2 1.88264 51.468 4.40366
695 2 2.08707 40.0412 45.4436
696 2 1.94426 39.9592 37.3851
697 2 1.90403 40.0834 29.0218
698 2 1.76395 28.3548 45.5319
699 2 1.92349 28.3141 37.186
700 2 1.87255 28.3608 29.1855
701 2 1.84458 28.3468 20.8768
702 2 2.06619 28.3372 12.3862
703 2 2.05182 16.6433 45.6325
704 2 2.0985 16.8778 37.4521
705 2 2.14317 16.766 28.8251
706 2 2.06332 16.6508 21.0374
707 2 1.71311 16.8214 12.3937
708 2 1.8389 16.8327 4.15479
709 2 2.07649 5.10785 45.6851
710 2 7.50968 28.4026 20.8314
711 2 13.7676 51.7503 37.179
712 2 7.59382 28.3193 29.0214
713 2 7.62051 28.4681 45.5342
714 2 13.3605 51.7153 20.7623
715 2 13.3982 51.6549 12.6201
716 2 13.5777 51.58 4.4853
717 2 13.5631 39.8533 45.6575
718 2 13.6328 40.1839 37.3129
719 2 13.7619 40.1469 20.7463
720 2 13.75 40.123 12.6064
721 2 13.7906 39.9648 4.41166
722 2 13.3861 28.4785 45.5481
723 2 13.5034 28.3755 20.8495
724 2 13.5948 28.4032 12.7121
725 2 13.6863 16.5935 45.6256
726 2 13.6472 16.5915 37.4153
727 2 13.7502 16.7093 29.1618
728 2 13.778 16.7186 20.5863
729 2 13.6267 16.8195 4.19366
730 2 13.908 5.17655 20.7616
731 2 13.7869 5.26262 4.45941
732 2 7.97101 51.6436 45.683
733 2 7.78882 51.7971 37.2787
734 2 7.92392 51.5606 28.9927
735 2 7.58451 51.8532 20.7697
736 2 7.82642 51.5543 4.33095
737 2 7.71641 40.0549 45.6343
738 2 7.86398 40.0875 37.3024
739 2 7.7481 40.2202 21.0597
740 2 7.72265 40.0829 4.49431
741 2 7.56653 28.3974 37.3407
742 2 1.74984 11.1472 16.7364
743 2 4.95087 13.923 12.613
744 2 5.09232 2.27511 29.1727
745 2 25.3457 57.409 20.8064
746 2 25.4348 57.544 12.6524
747 2 25.372 57.4971 4.17116
748 2 25.5372 45.8608 45.7195
749 2 25.4704 45.9623 37.3645
750 2 25.386 45.8724 20.661
751 2 25.4918 45.901 4.35985
752 2 25.3656 34.2115 45.6836
753 2 25.4496 34.1282 37.1576
754 2 25.4196 34.0552 29.1423
755 2 25.1329 34.261 20.876
756 2 25.4681 34.381 12.7576
757 2 25.2454 34.1618 4.38422
758 2 25.1393 22.4975 45.6862
759 2 25.4559 22.4866 37.156
760 2 25.3434 22.5314 29.1259
761 2 25.1167 22.5534 20.7913
762 2 25.3738 22.3523 12.5313
763 2 25.5523 11.0708 37.2943
764 2 25.5445 11.0439 12.6432
765 2 25.4065 10.6674 4.30376
766 2 19.6704 57.3542 45.6292
767 2 19.4395 57.466 20.5749
768 2 19.2809 57.5718 12.5906
769 2 19.6117 45.9281 37.1518
770 2 19.5585 45.826 29.1134
771 2 19.7095 45.8841 12.5799
772 2 25.4655 57.3983 29.1748
773 2 19.6989 34.2904 37.3087
774 2 25.3428 57.3694 45.4372
775 2 31.3371 10.9649 12.4924
776 2 5.05074 19.6015 37.5722
777 2 5.03242 19.4526 29.0068
778 2 5.02805 19.7552 20.8155
779 2 4.90954 19.6801 12.6441
780 2 5.01514 19.7956 4.52077
781 2 4.94837 7.98158 28.9829
782 2 4.54436 7.92132 20.7112
783 2 4.87405 8.12223 12.619
784 2 4.93726 8.05976 4.26666
785 2 31.3868 57.3468 37.3708
786 2 31.2149 57.545 20.8669
787 2 31.1893 57.4086 4.45681
788 2 31.1373 45.8237 37.4063
789 2 31.1353 45.7527 12.7124
790 2 31.1537 45.7393 4.33517
791 2 31.2754 34.2826 45.5447
792 2 31.2319 34.1818 37.1384
793 2 31.2059 34.1617 20.8123
794 2 31.2379 34.1889 12.5845
795 2 31.1599 34.3855 4.23583
796 2 30.8786 22.57 45.5852
797 2 31.2392 22.6805 37.5101
798 2 31.3308 22.5684 28.9175
799 2 30.9298 22.6485 20.7218
800 2 31.226 22.456 12.6702
801 2 31.2384 11.0894 45.3961
802 2 31.1365 10.9729 28.843
803 2 31.3239 10.8352 4.35428
804 2 4.93832 19.7594 45.3221
805 2 19.5597 34.2205 20.7242
806 2 19.5334 22.4397 37.3247
807 2 7.81879 45.7155 45.4644
808 2 8.01762 45.9198 37.3367
809 2 7.9978 45.8189 29.0089
810 2 7.8391 45.6745 20.7903
811 2 7.84465 45.7437 12.4107
812 2 7.71598 45.8435 4.29765
813 2 8.09328 34.2 45.4751
814 2 7.95002 34.3691 37.3809
815 2 7.8607 34.4117 28.9496
816 2 7.55759 34.0963 12.5829
817 2 7.80132 22.544 45.5399
818 2 7.99511 22.6095 29.0074
819 2 7.84494 22.6125 12.424
820 2 7.64614 22.5073 4.3204
821 2 7.76715 10.7751 45.601
822 2 7.76737 10.959 37.3187
823 2 7.83575 10.9868 29.1909
824 2 7.6958 11.0648 20.7538
825 2 7.77521 10.6805 12.4743
826 2 7.87706 10.9276 4.36096
827 2 2.01028 57.6363 45.6828
828 2 1.90752 57.5564 37.2484
829 2 1.57746 57.5528 29.1545
830 2 2.05902 57.4634 20.9073
831 2 2.05434 57.2904 12.3834
832 2 2.02893 45.9135 45.6902
833 2 1.93798 45.9449 37.3641
834 2 7.95681 57.5879 4.2541
835 2 19.2359 34.0517 4.26451
836 2 7.84983 57.4455 20.9176
837 2 7.93753 57.5393 45.7719
838 2 19.4184 22.5409 28.9738
839 2 19.5677 22.4739 12.54
840 2 19.7136 11.1061 45.5661
841 2 19.6299 11.0277 20.6858
842 2 19.6102 10.9973 12.704
843 2 13.728 57.4954 45.4685
844 2 13.7896 57.276 37.3816
845 2 13.8148 57.3413 29.0601
846 2 13.5645 57.6114 20.8849
847 2 13.6543 57.2117 12.635
848 2 13.98 57.4832 4.43924
849 2 13.6862 45.9628 29.0503
850 2 13.5294 45.7194 20.6946
851 2 13.7108 45.7643 12.5977
852 2 13.6865 45.7156 4.30686
853 2 13.6051 34.1832 45.3829
854 2 13.6451 34.1361 37.4913
855 2 13.8672 34.0823 20.9425
856 2 13.6224 22.7207 29.2174
857 2 13.8561 22.5935 20.6989
858 2 13.7345 22.4078 12.5688
859 2 13.4012 22.5573 4.43321
860 2 13.4703 10.9947 45.5142
861 2 13.8639 10.9208 37.3317
862 2 13.7925 10.9818 20.9102
863 2 13.7645 10.8573 12.5494
864 2 13.6785 10.9699 4.42564
865 2 7.8359 57.4354 37.1272
866 2 5.05104 13.9 4.22043
867 2 5.08114 31.3291 4.42167
868 2 5.03372 31.3239 29.0489
869 2 28.3874 42.9182 4.06587
870 2 27.8735 31.3012 45.5107
871 2 28.3015 31.4395 37.4168
872 2 28.3785 31.3189 29.2755
873 2 28.0941 31.3752 20.7649
874 2 28.2754 31.1431 4.2671
875 2 28.1754 19.7816 45.4763
876 2 28.2775 19.7352 37.3997
877 2 28.2134 19.8178 29.1001
878 2 28.2801 19.7689 21.037
879 2 28.3344 19.6551 12.5612
880 2 28.3135 19.7751 4.29521
881 2 28.4347 8.06613 45.6231
882 2 28.3244 8.31738 20.7654
883 2 28.0093 8.18322 12.7239
884 2 22.6597 54.5135 45.5395
885 2 22.5582 54.4645 37.4241
886 2 22.4136 54.6018 29.0779
887 2 22.4781 54.7504 4.17533
888 2 22.503 43.1232 45.4921
889 2 22.4237 42.8852 37.2889
890 2 22.5017 42.9778 28.9989
891 2 22.5057 43.046 12.6369
892 2 22.45 31.3486 37.2753
893 2 22.3213 31.3261 29.0235
894 2 22.3634 31.3909 20.7704
895 2 22.6685 31.5067 12.5963
896 2 28.1589 42.9131 20.5582
897 2 22.5931 31.2974 4.65521
898 2 28.3277 42.9862 29.1463
899 2 28.2152 54.5025 29.1943
900 2 4.92692 2.39825 20.6887
901 2 4.97819 2.33456 12.7268
902 2 5.05448 2.38369 4.42221
903 2 34.073 54.6217 45.3768
904 2 34.1572 54.4778 28.8711
905 2 34.0184 54.4185 20.7702
906 2 34.0755 54.5782 12.595
907 2 34.2236 54.7223 4.32908
908 2 34.0632 42.9528 45.5058
909 2 34.1701 42.8954 37.5759
910 2 34.1876 43.0241 29.1369
911 2 34.2673 43.0791 20.7967
912 2 34.3042 43.0253 12.5214
913 2 34.2959 43.0032 4.54338
914 2 34.1147 31.5681 37.249
915 2 34.2274 31.3549 20.9676
916 2 34.2694 31.0248 12.7881
917 2 34.2452 31.3332 4.17262
918 2 34.1917 19.8148 45.5772
919 2 34.1983 19.3695 37.2777
920 2 34.1851 19.5876 29.1805
921 2 34.1099 19.6025 20.7397
922 2 34.1749 19.8186 12.5306
923 2 34.3284 8.04734 45.5209
924 2 33.8688 7.94987 29.0677
925 2 34.0678 8.15337 21.0259
926 2 34.2207 8.14849 12.4593
927 2 27.864 54.527 20.8806
928 2 5.05937 31.2488 12.5374
929 2 22.6095 19.5957 45.52
930 2 22.4514 19.7943 29.2934
931 2 10.7755 54.6465 12.7605
932 2 10.5652 54.6069 4.26825
933 2 10.9593 42.9312 37.209
934 2 10.8634 42.9662 29.1202
935 2 10.7377 42.9709 20.8005
936 2 10.9037 42.9376 12.6287
937 2 10.9033 31.3547 45.3927
938 2 10.9475 31.4668 29.0615
939 2 10.7398 31.298 20.6464
940 2 10.6181 19.7986 45.4246
941 2 10.7863 19.7203 37.4538
942 2 10.5928 19.6533 20.7799
943 2 10.725 19.8648 4.4022
944 2 10.769 8.15492 45.6537
945 2 10.813 7.95986 37.2539
946 2 10.8253 8.05043 29.1133
947 2 10.8479 8.09744 12.4809
948 2 10.686 8.17664 4.44727
949 2 4.91778 54.5019 45.6315
950 2 4.88046 54.8507 29.067
951 2 4.95412 54.7046 4.37661
952 2 4.94811 42.9331 37.2238
953 2 5.00768 43.0048 28.9626
954 2 4.96701 42.9649 12.4608
955 2 4.97653 42.9639 4.36341
956 2 4.99394 31.477 45.4228
957 2 5.02959 31.5168 37.435
958 2 10.8303 54.7267 20.7265
959 2 22.4176 19.7588 37.2688
960 2 10.7708 54.637 37.3442
961 2 16.5875 8.03421 12.4947
962 2 22.5405 19.7142 12.643
963 2 22.3324 19.6909 4.31674
964 2 22.4133 8.00383 45.4677
965 2 22.4932 8.09853 37.2508
966 2 22.4632 8.22952 29.0462
967 2 16.597 54.6716 45.4291
968 2 16.6155 54.6104 37.3734
969 2 16.5417 54.541 12.3484
970 2 16.6749 54.4922 4.54763
971 2 16.6577 43.0925 45.6226
972 2 16.5246 42.9866 37.473
973 2 16.6 42.88 29.2343
974 2 16.7172 42.8423 12.4541
975 2 16.783 42.809 4.36349
976 2 16.6409 31.2718 45.7407
977 2 16.5856 31.4906 37.296
978 2 16.6126 31.3463 29.0608
979 2 16.742 31.2822 20.6642
980 2 16.6434 31.2644 4.43293
981 2 16.7193 19.8855 45.6308
982 2 16.7172 19.6668 37.2398
983 2 16.5785 19.8179 29.1148
984 2 16.6593 19.5739 20.7397
985 2 16.6528 19.7509 12.8585
986 2 16.619 7.94306 45.5555
987 2 16.3905 8.24157 29.1727
988 2 16.7294 7.9516 20.949
989 2 16.327 8.12256 4.33618
990 2 1.71813 11.0307 0.293853
991 4 1.61133 11.0803 8.41977
992 4 7.81675 16.6528 12.6527
993 4 10.6329 42.9114 45.4915
994 4 10.6777 42.9052 4.35652
995 4 10.7181 31.271 37.3933
996 4 10.8868 31.2844 12.6142
997 4 10.822 31.3644 4.44507
998 4 10.8385 19.7456 29.0708
999 4 10.8701 19.6933 12.5961
1000 4 10.8601 8.19387 20.8327