
19992 atoms
15 atom types
   0.0000000000   39.9780274102 xlo xhi
   0.0000000000   39.9778886642 ylo yhi
   0.0000000000  159.9110555430 zlo zhi
   0.1019707996    0.4078861694    0.4068480330 xy xz yz

Atoms # atomic

     1      1    0.0007662702    0.0007643180    0.0007623760
     2      1    0.0109634244    0.0109355188    3.9985387645
     3      1    0.0211605786    0.0211067196    7.9963151531
     4      1    0.0313577329    0.0312779205   11.9940915417
     5      1    0.0415548871    0.0414491213   15.9918679303
     6      1    0.0517520413    0.0516203221   19.9896443188
     7      1    0.0619491956    0.0617915229   23.9874207074
     8      1    0.0721463498    0.0719627238   27.9851970960
     9      1    0.0823435041    0.0821339246   31.9829734846
    10      1    0.0925406583    0.0923051254   35.9807498731
    11      1    0.1027378125    0.1024763262   39.9785262617
    12      1    0.1129349668    0.1126475271   43.9763026503
    13      1    0.1231321210    0.1228187279   47.9740790389
    14      1    0.1333292752    0.1329899287   51.9718554274
    15      1    0.1435264295    0.1431611296   55.9696318160
    16      1    0.1537235837    0.1533323304   59.9674082046
    17      1    0.1639207379    0.1635035312   63.9651845932
    18      1    0.1741178922    0.1736747320   67.9629609817
    19      1    0.1843150464    0.1838459329   71.9607373703
    20      1    0.1945122006    0.1940171337   75.9585137589
    21      1    0.2047093549    0.2041883345   79.9562901475
    22      1    0.2149065091    0.2143595353   83.9540665361
    23      1    0.2251036634    0.2245307362   87.9518429246
    24      1    0.2353008176    0.2347019370   91.9496193132
    25      1    0.2454979718    0.2448731378   95.9473957018
    26      1    0.2556951261    0.2550443386   99.9451720904
    27      1    0.2658922803    0.2652155395  103.9429484789
    28      1    0.2760894345    0.2753867403  107.9407248675
    29      1    0.2862865888    0.2855579411  111.9385012561
    30      1    0.2964837430    0.2957291419  115.9362776447
    31      1    0.3066808972    0.3059003428  119.9340540332
    32      1    0.3168780515    0.3160715436  123.9318304218
    33      1    0.3270752057    0.3262427444  127.9296068104
    34      1    0.3372723599    0.3364139452  131.9273831990
    35      1    0.3474695142    0.3465851461  135.9251595875
    36      1    0.3576666684    0.3567563469  139.9229359761
    37      1    0.3678638227    0.3669275477  143.9207123647
    38      1    0.3780609769    0.3770987486  147.9184887533
    39      1    0.3882581311    0.3872699494  151.9162651418
    40      1    0.3984552854    0.3974411502  155.9140415304
    41      1    0.0109633501    3.9985531844    0.0007623760
    42      1    0.0211605044    4.0087243852    3.9985387645
    43      1    0.0313576586    4.0188955861    7.9963151531
    44      1    0.0415548128    4.0290667869   11.9940915417
    45      1    0.0517519671    4.0392379877   15.9918679303
    46      1    0.0619491213    4.0494091885   19.9896443188
    47      1    0.0721462755    4.0595803894   23.9874207074
    48      1    0.0823434298    4.0697515902   27.9851970960
    49      1    0.0925405840    4.0799227910   31.9829734846
    50      1    0.1027377382    4.0900939918   35.9807498731
    51      1    0.1129348925    4.1002651927   39.9785262617
    52      1    0.1231320467    4.1104363935   43.9763026503
    53      1    0.1333292010    4.1206075943   47.9740790389
    54      1    0.1435263552    4.1307787951   51.9718554274
    55      1    0.1537235094    4.1409499960   55.9696318160
    56      1    0.1639206637    4.1511211968   59.9674082046
    57      1    0.1741178179    4.1612923976   63.9651845932
    58      1    0.1843149721    4.1714635984   67.9629609817
    59      1    0.1945121264    4.1816347993   71.9607373703
    60      1    0.2047092806    4.1918060001   75.9585137589
    61      1    0.2149064348    4.2019772009   79.9562901475
    62      1    0.2251035891    4.2121484017   83.9540665361
    63      1    0.2353007433    4.2223196026   87.9518429246
    64      1    0.2454978975    4.2324908034   91.9496193132
    65      1    0.2556950518    4.2426620042   95.9473957018
    66      1    0.2658922060    4.2528332051   99.9451720904
    67      1    0.2760893603    4.2630044059  103.9429484789
    68      1    0.2862865145    4.2731756067  107.9407248675
    69      1    0.2964836687    4.2833468075  111.9385012561
    70      1    0.3066808230    4.2935180084  115.9362776447
    71      1    0.3168779772    4.3036892092  119.9340540332
    72      1    0.3270751314    4.3138604100  123.9318304218
    73      1    0.3372722857    4.3240316108  127.9296068104
    74      1    0.3474694399    4.3342028117  131.9273831990
    75      1    0.3576665941    4.3443740125  135.9251595875
    76      1    0.3678637484    4.3545452133  139.9229359761
    77      1    0.3780609026    4.3647164141  143.9207123647
    78      1    0.3882580568    4.3748876150  147.9184887533
    79      1    0.3984552111    4.3850588158  151.9162651418
    80      1    0.4086523653    4.3952300166  155.9140415304
    81      1    0.0211604301    7.9963420508    0.0007623760
    82      1    0.0313575843    8.0065132516    3.9985387645
    83      1    0.0415547385    8.0166844525    7.9963151531
    84      1    0.0517518928    8.0268556533   11.9940915417
    85      1    0.0619490470    8.0370268541   15.9918679303
    86      1    0.0721462013    8.0471980549   19.9896443188
    87      1    0.0823433555    8.0573692558   23.9874207074
    88      1    0.0925405097    8.0675404566   27.9851970960
    89      1    0.1027376640    8.0777116574   31.9829734846
    90      1    0.1129348182    8.0878828583   35.9807498731
    91      1    0.1231319724    8.0980540591   39.9785262617
    92      1    0.1333291267    8.1082252599   43.9763026503
    93      1    0.1435262809    8.1183964607   47.9740790389
    94      1    0.1537234351    8.1285676616   51.9718554274
    95      1    0.1639205894    8.1387388624   55.9696318160
    96      1    0.1741177436    8.1489100632   59.9674082046
    97      1    0.1843148978    8.1590812640   63.9651845932
    98      1    0.1945120521    8.1692524649   67.9629609817
    99      1    0.2047092063    8.1794236657   71.9607373703
   100      1    0.2149063606    8.1895948665   75.9585137589
   101      1    0.2251035148    8.1997660673   79.9562901475
   102      1    0.2353006690    8.2099372682   83.9540665361
   103      1    0.2454978233    8.2201084690   87.9518429246
   104      1    0.2556949775    8.2302796698   91.9496193132
   105      1    0.2658921317    8.2404508706   95.9473957018
   106      1    0.2760892860    8.2506220715   99.9451720904
   107      1    0.2862864402    8.2607932723  103.9429484789
   108      1    0.2964835944    8.2709644731  107.9407248675
   109      1    0.3066807487    8.2811356739  111.9385012561
   110      1    0.3168779029    8.2913068748  115.9362776447
   111      1    0.3270750572    8.3014780756  119.9340540332
   112      1    0.3372722114    8.3116492764  123.9318304218
   113      1    0.3474693656    8.3218204773  127.9296068104
   114      1    0.3576665199    8.3319916781  131.9273831990
   115      1    0.3678636741    8.3421628789  135.9251595875
   116      1    0.3780608283    8.3523340797  139.9229359761
   117      1    0.3882579826    8.3625052806  143.9207123647
   118      1    0.3984551368    8.3726764814  147.9184887533
   119      1    0.4086522910    8.3828476822  151.9162651418
   120      1    0.4188494453    8.3930188830  155.9140415304
   121      1    0.0313575100   11.9941309172    0.0007623760
   122      1    0.0415546643   12.0043021181    3.9985387645
   123      1    0.0517518185   12.0144733189    7.9963151531
   124      1    0.0619489727   12.0246445197   11.9940915417
   125      1    0.0721461270   12.0348157205   15.9918679303
   126      1    0.0823432812   12.0449869214   19.9896443188
   127      1    0.0925404354   12.0551581222   23.9874207074
   128      1    0.1027375897   12.0653293230   27.9851970960
   129      1    0.1129347439   12.0755005238   31.9829734846
   130      1    0.1231318982   12.0856717247   35.9807498731
   131      1    0.1333290524   12.0958429255   39.9785262617
   132      1    0.1435262066   12.1060141263   43.9763026503
   133      1    0.1537233609   12.1161853271   47.9740790389
   134      1    0.1639205151   12.1263565280   51.9718554274
   135      1    0.1741176693   12.1365277288   55.9696318160
   136      1    0.1843148236   12.1466989296   59.9674082046
   137      1    0.1945119778   12.1568701304   63.9651845932
   138      1    0.2047091320   12.1670413313   67.9629609817
   139      1    0.2149062863   12.1772125321   71.9607373703
   140      1    0.2251034405   12.1873837329   75.9585137589
   141      1    0.2353005947   12.1975549338   79.9562901475
   142      1    0.2454977490   12.2077261346   83.9540665361
   143      1    0.2556949032   12.2178973354   87.9518429246
   144      1    0.2658920575   12.2280685362   91.9496193132
   145      1    0.2760892117   12.2382397371   95.9473957018
   146      1    0.2862863659   12.2484109379   99.9451720904
   147      1    0.2964835202   12.2585821387  103.9429484789
   148      1    0.3066806744   12.2687533395  107.9407248675
   149      1    0.3168778286   12.2789245404  111.9385012561
   150      1    0.3270749829   12.2890957412  115.9362776447
   151      1    0.3372721371   12.2992669420  119.9340540332
   152      1    0.3474692913   12.3094381428  123.9318304218
   153      1    0.3576664456   12.3196093437  127.9296068104
   154      1    0.3678635998   12.3297805445  131.9273831990
   155      1    0.3780607541   12.3399517453  135.9251595875
   156      1    0.3882579083   12.3501229461  139.9229359761
   157      1    0.3984550625   12.3602941470  143.9207123647
   158      1    0.4086522168   12.3704653478  147.9184887533
   159      1    0.4188493710   12.3806365486  151.9162651418
   160      1    0.4290465252   12.3908077495  155.9140415304
   161      1    0.0415545900   15.9919197836    0.0007623760
   162      1    0.0517517442   16.0020909845    3.9985387645
   163      1    0.0619488985   16.0122621853    7.9963151531
   164      1    0.0721460527   16.0224333861   11.9940915417
   165      1    0.0823432069   16.0326045870   15.9918679303
   166      1    0.0925403612   16.0427757878   19.9896443188
   167      1    0.1027375154   16.0529469886   23.9874207074
   168      1    0.1129346696   16.0631181894   27.9851970960
   169      1    0.1231318239   16.0732893903   31.9829734846
   170      1    0.1333289781   16.0834605911   35.9807498731
   171      1    0.1435261323   16.0936317919   39.9785262617
   172      1    0.1537232866   16.1038029927   43.9763026503
   173      1    0.1639204408   16.1139741936   47.9740790389
   174      1    0.1741175951   16.1241453944   51.9718554274
   175      1    0.1843147493   16.1343165952   55.9696318160
   176      1    0.1945119035   16.1444877960   59.9674082046
   177      1    0.2047090578   16.1546589969   63.9651845932
   178      1    0.2149062120   16.1648301977   67.9629609817
   179      1    0.2251033662   16.1750013985   71.9607373703
   180      1    0.2353005205   16.1851725993   75.9585137589
   181      1    0.2454976747   16.1953438002   79.9562901475
   182      1    0.2556948289   16.2055150010   83.9540665361
   183      1    0.2658919832   16.2156862018   87.9518429246
   184      1    0.2760891374   16.2258574026   91.9496193132
   185      1    0.2862862916   16.2360286035   95.9473957018
   186      1    0.2964834459   16.2461998043   99.9451720904
   187      1    0.3066806001   16.2563710051  103.9429484789
   188      1    0.3168777544   16.2665422060  107.9407248675
   189      1    0.3270749086   16.2767134068  111.9385012561
   190      1    0.3372720628   16.2868846076  115.9362776447
   191      1    0.3474692171   16.2970558084  119.9340540332
   192      1    0.3576663713   16.3072270093  123.9318304218
   193      1    0.3678635255   16.3173982101  127.9296068104
   194      1    0.3780606798   16.3275694109  131.9273831990
   195      1    0.3882578340   16.3377406117  135.9251595875
   196      1    0.3984549882   16.3479118126  139.9229359761
   197      1    0.4086521425   16.3580830134  143.9207123647
   198      1    0.4188492967   16.3682542142  147.9184887533
   199      1    0.4290464510   16.3784254150  151.9162651418
   200      1    0.4392436052   16.3885966159  155.9140415304
   201      1    0.0517516699   19.9897086501    0.0007623760
   202      1    0.0619488242   19.9998798509    3.9985387645
   203      1    0.0721459784   20.0100510517    7.9963151531
   204      1    0.0823431326   20.0202222525   11.9940915417
   205      1    0.0925402869   20.0303934534   15.9918679303
   206      1    0.1027374411   20.0405646542   19.9896443188
   207      1    0.1129345954   20.0507358550   23.9874207074
   208      1    0.1231317496   20.0609070558   27.9851970960
   209      1    0.1333289038   20.0710782567   31.9829734846
   210      1    0.1435260581   20.0812494575   35.9807498731
   211      1    0.1537232123   20.0914206583   39.9785262617
   212      1    0.1639203665   20.1015918592   43.9763026503
   213      1    0.1741175208   20.1117630600   47.9740790389
   214      1    0.1843146750   20.1219342608   51.9718554274
   215      1    0.1945118292   20.1321054616   55.9696318160
   216      1    0.2047089835   20.1422766625   59.9674082046
   217      1    0.2149061377   20.1524478633   63.9651845932
   218      1    0.2251032920   20.1626190641   67.9629609817
   219      1    0.2353004462   20.1727902649   71.9607373703
   220      1    0.2454976004   20.1829614658   75.9585137589
   221      1    0.2556947547   20.1931326666   79.9562901475
   222      1    0.2658919089   20.2033038674   83.9540665361
   223      1    0.2760890631   20.2134750682   87.9518429246
   224      1    0.2862862174   20.2236462691   91.9496193132
   225      1    0.2964833716   20.2338174699   95.9473957018
   226      1    0.3066805258   20.2439886707   99.9451720904
   227      1    0.3168776801   20.2541598715  103.9429484789
   228      1    0.3270748343   20.2643310724  107.9407248675
   229      1    0.3372719885   20.2745022732  111.9385012561
   230      1    0.3474691428   20.2846734740  115.9362776447
   231      1    0.3576662970   20.2948446748  119.9340540332
   232      1    0.3678634513   20.3050158757  123.9318304218
   233      1    0.3780606055   20.3151870765  127.9296068104
   234      1    0.3882577597   20.3253582773  131.9273831990
   235      1    0.3984549140   20.3355294782  135.9251595875
   236      1    0.4086520682   20.3457006790  139.9229359761
   237      1    0.4188492224   20.3558718798  143.9207123647
   238      1    0.4290463767   20.3660430806  147.9184887533
   239      1    0.4392435309   20.3762142815  151.9162651418
   240      1    0.4494406851   20.3863854823  155.9140415304
   241      1    0.0619487499   23.9874975165    0.0007623760
   242      1    0.0721459041   23.9976687173    3.9985387645
   243      1    0.0823430584   24.0078399181    7.9963151531
   244      1    0.0925402126   24.0180111190   11.9940915417
   245      1    0.1027373668   24.0281823198   15.9918679303
   246      1    0.1129345211   24.0383535206   19.9896443188
   247      1    0.1231316753   24.0485247214   23.9874207074
   248      1    0.1333288295   24.0586959223   27.9851970960
   249      1    0.1435259838   24.0688671231   31.9829734846
   250      1    0.1537231380   24.0790383239   35.9807498731
   251      1    0.1639202923   24.0892095247   39.9785262617
   252      1    0.1741174465   24.0993807256   43.9763026503
   253      1    0.1843146007   24.1095519264   47.9740790389
   254      1    0.1945117550   24.1197231272   51.9718554274
   255      1    0.2047089092   24.1298943280   55.9696318160
   256      1    0.2149060634   24.1400655289   59.9674082046
   257      1    0.2251032177   24.1502367297   63.9651845932
   258      1    0.2353003719   24.1604079305   67.9629609817
   259      1    0.2454975261   24.1705791313   71.9607373703
   260      1    0.2556946804   24.1807503322   75.9585137589
   261      1    0.2658918346   24.1909215330   79.9562901475
   262      1    0.2760889889   24.2010927338   83.9540665361
   263      1    0.2862861431   24.2112639347   87.9518429246
   264      1    0.2964832973   24.2214351355   91.9496193132
   265      1    0.3066804516   24.2316063363   95.9473957018
   266      1    0.3168776058   24.2417775371   99.9451720904
   267      1    0.3270747600   24.2519487380  103.9429484789
   268      1    0.3372719143   24.2621199388  107.9407248675
   269      1    0.3474690685   24.2722911396  111.9385012561
   270      1    0.3576662227   24.2824623404  115.9362776447
   271      1    0.3678633770   24.2926335413  119.9340540332
   272      1    0.3780605312   24.3028047421  123.9318304218
   273      1    0.3882576854   24.3129759429  127.9296068104
   274      1    0.3984548397   24.3231471437  131.9273831990
   275      1    0.4086519939   24.3333183446  135.9251595875
   276      1    0.4188491482   24.3434895454  139.9229359761
   277      1    0.4290463024   24.3536607462  143.9207123647
   278      1    0.4392434566   24.3638319470  147.9184887533
   279      1    0.4494406109   24.3740031479  151.9162651418
   280      1    0.4596377651   24.3841743487  155.9140415304
   281      1    0.0721458299   27.9852863829    0.0007623760
   282      1    0.0823429841   27.9954575837    3.9985387645
   283      1    0.0925401383   28.0056287845    7.9963151531
   284      1    0.1027372926   28.0157999854   11.9940915417
   285      1    0.1129344468   28.0259711862   15.9918679303
   286      1    0.1231316010   28.0361423870   19.9896443188
   287      1    0.1333287553   28.0463135879   23.9874207074
   288      1    0.1435259095   28.0564847887   27.9851970960
   289      1    0.1537230637   28.0666559895   31.9829734846
   290      1    0.1639202180   28.0768271903   35.9807498731
   291      1    0.1741173722   28.0869983912   39.9785262617
   292      1    0.1843145264   28.0971695920   43.9763026503
   293      1    0.1945116807   28.1073407928   47.9740790389
   294      1    0.2047088349   28.1175119936   51.9718554274
   295      1    0.2149059892   28.1276831945   55.9696318160
   296      1    0.2251031434   28.1378543953   59.9674082046
   297      1    0.2353002976   28.1480255961   63.9651845932
   298      1    0.2454974519   28.1581967969   67.9629609817
   299      1    0.2556946061   28.1683679978   71.9607373703
   300      1    0.2658917603   28.1785391986   75.9585137589
   301      1    0.2760889146   28.1887103994   79.9562901475
   302      1    0.2862860688   28.1988816002   83.9540665361
   303      1    0.2964832230   28.2090528011   87.9518429246
   304      1    0.3066803773   28.2192240019   91.9496193132
   305      1    0.3168775315   28.2293952027   95.9473957018
   306      1    0.3270746858   28.2395664035   99.9451720904
   307      1    0.3372718400   28.2497376044  103.9429484789
   308      1    0.3474689942   28.2599088052  107.9407248675
   309      1    0.3576661485   28.2700800060  111.9385012561
   310      1    0.3678633027   28.2802512069  115.9362776447
   311      1    0.3780604569   28.2904224077  119.9340540332
   312      1    0.3882576112   28.3005936085  123.9318304218
   313      1    0.3984547654   28.3107648093  127.9296068104
   314      1    0.4086519196   28.3209360102  131.9273831990
   315      1    0.4188490739   28.3311072110  135.9251595875
   316      1    0.4290462281   28.3412784118  139.9229359761
   317      1    0.4392433823   28.3514496126  143.9207123647
   318      1    0.4494405366   28.3616208135  147.9184887533
   319      1    0.4596376908   28.3717920143  151.9162651418
   320      1    0.4698348451   28.3819632151  155.9140415304
   321      1    0.0823429098   31.9830752493    0.0007623760
   322      1    0.0925400640   31.9932464501    3.9985387645
   323      1    0.1027372183   32.0034176510    7.9963151531
   324      1    0.1129343725   32.0135888518   11.9940915417
   325      1    0.1231315268   32.0237600526   15.9918679303
   326      1    0.1333286810   32.0339312534   19.9896443188
   327      1    0.1435258352   32.0441024543   23.9874207074
   328      1    0.1537229895   32.0542736551   27.9851970960
   329      1    0.1639201437   32.0644448559   31.9829734846
   330      1    0.1741172979   32.0746160567   35.9807498731
   331      1    0.1843144522   32.0847872576   39.9785262617
   332      1    0.1945116064   32.0949584584   43.9763026503
   333      1    0.2047087606   32.1051296592   47.9740790389
   334      1    0.2149059149   32.1153008601   51.9718554274
   335      1    0.2251030691   32.1254720609   55.9696318160
   336      1    0.2353002233   32.1356432617   59.9674082046
   337      1    0.2454973776   32.1458144625   63.9651845932
   338      1    0.2556945318   32.1559856634   67.9629609817
   339      1    0.2658916861   32.1661568642   71.9607373703
   340      1    0.2760888403   32.1763280650   75.9585137589
   341      1    0.2862859945   32.1864992658   79.9562901475
   342      1    0.2964831488   32.1966704667   83.9540665361
   343      1    0.3066803030   32.2068416675   87.9518429246
   344      1    0.3168774572   32.2170128683   91.9496193132
   345      1    0.3270746115   32.2271840691   95.9473957018
   346      1    0.3372717657   32.2373552700   99.9451720904
   347      1    0.3474689199   32.2475264708  103.9429484789
   348      1    0.3576660742   32.2576976716  107.9407248675
   349      1    0.3678632284   32.2678688724  111.9385012561
   350      1    0.3780603827   32.2780400733  115.9362776447
   351      1    0.3882575369   32.2882112741  119.9340540332
   352      1    0.3984546911   32.2983824749  123.9318304218
   353      1    0.4086518454   32.3085536757  127.9296068104
   354      1    0.4188489996   32.3187248766  131.9273831990
   355      1    0.4290461538   32.3288960774  135.9251595875
   356      1    0.4392433081   32.3390672782  139.9229359761
   357      1    0.4494404623   32.3492384791  143.9207123647
   358      1    0.4596376165   32.3594096799  147.9184887533
   359      1    0.4698347708   32.3695808807  151.9162651418
   360      1    0.4800319250   32.3797520815  155.9140415304
   361      1    0.0925399898   35.9808641157    0.0007623760
   362      1    0.1027371440   35.9910353166    3.9985387645
   363      1    0.1129342982   36.0012065174    7.9963151531
   364      1    0.1231314525   36.0113777182   11.9940915417
   365      1    0.1333286067   36.0215489190   15.9918679303
   366      1    0.1435257609   36.0317201199   19.9896443188
   367      1    0.1537229152   36.0418913207   23.9874207074
   368      1    0.1639200694   36.0520625215   27.9851970960
   369      1    0.1741172237   36.0622337223   31.9829734846
   370      1    0.1843143779   36.0724049232   35.9807498731
   371      1    0.1945115321   36.0825761240   39.9785262617
   372      1    0.2047086864   36.0927473248   43.9763026503
   373      1    0.2149058406   36.1029185256   47.9740790389
   374      1    0.2251029948   36.1130897265   51.9718554274
   375      1    0.2353001491   36.1232609273   55.9696318160
   376      1    0.2454973033   36.1334321281   59.9674082046
   377      1    0.2556944575   36.1436033289   63.9651845932
   378      1    0.2658916118   36.1537745298   67.9629609817
   379      1    0.2760887660   36.1639457306   71.9607373703
   380      1    0.2862859202   36.1741169314   75.9585137589
   381      1    0.2964830745   36.1842881322   79.9562901475
   382      1    0.3066802287   36.1944593331   83.9540665361
   383      1    0.3168773830   36.2046305339   87.9518429246
   384      1    0.3270745372   36.2148017347   91.9496193132
   385      1    0.3372716914   36.2249729356   95.9473957018
   386      1    0.3474688457   36.2351441364   99.9451720904
   387      1    0.3576659999   36.2453153372  103.9429484789
   388      1    0.3678631541   36.2554865380  107.9407248675
   389      1    0.3780603084   36.2656577389  111.9385012561
   390      1    0.3882574626   36.2758289397  115.9362776447
   391      1    0.3984546168   36.2860001405  119.9340540332
   392      1    0.4086517711   36.2961713413  123.9318304218
   393      1    0.4188489253   36.3063425422  127.9296068104
   394      1    0.4290460795   36.3165137430  131.9273831990
   395      1    0.4392432338   36.3266849438  135.9251595875
   396      1    0.4494403880   36.3368561446  139.9229359761
   397      1    0.4596375423   36.3470273455  143.9207123647
   398      1    0.4698346965   36.3571985463  147.9184887533
   399      1    0.4800318507   36.3673697471  151.9162651418
   400      1    0.4902290050   36.3775409479  155.9140415304
   401      1    3.9985690112    0.0007643180    0.0007623760
   402      1    4.0087661654    0.0109355188    3.9985387645
   403      1    4.0189633197    0.0211067196    7.9963151531
   404      1    4.0291604739    0.0312779205   11.9940915417
   405      1    4.0393576281    0.0414491213   15.9918679303
   406      1    4.0495547824    0.0516203221   19.9896443188
   407      1    4.0597519366    0.0617915229   23.9874207074
   408      1    4.0699490908    0.0719627238   27.9851970960
   409      1    4.0801462451    0.0821339246   31.9829734846
   410      1    4.0903433993    0.0923051254   35.9807498731
   411      1    4.1005405535    0.1024763262   39.9785262617
   412      1    4.1107377078    0.1126475271   43.9763026503
   413      1    4.1209348620    0.1228187279   47.9740790389
   414      1    4.1311320163    0.1329899287   51.9718554274
   415      1    4.1413291705    0.1431611296   55.9696318160
   416      1    4.1515263247    0.1533323304   59.9674082046
   417      1    4.1617234790    0.1635035312   63.9651845932
   418      1    4.1719206332    0.1736747320   67.9629609817
   419      1    4.1821177874    0.1838459329   71.9607373703
   420      1    4.1923149417    0.1940171337   75.9585137589
   421      1    4.2025120959    0.2041883345   79.9562901475
   422      1    4.2127092501    0.2143595353   83.9540665361
   423      1    4.2229064044    0.2245307362   87.9518429246
   424      1    4.2331035586    0.2347019370   91.9496193132
   425      1    4.2433007128    0.2448731378   95.9473957018
   426      1    4.2534978671    0.2550443386   99.9451720904
   427      1    4.2636950213    0.2652155395  103.9429484789
   428      1    4.2738921756    0.2753867403  107.9407248675
   429      1    4.2840893298    0.2855579411  111.9385012561
   430      1    4.2942864840    0.2957291419  115.9362776447
   431      1    4.3044836383    0.3059003428  119.9340540332
   432      1    4.3146807925    0.3160715436  123.9318304218
   433      1    4.3248779467    0.3262427444  127.9296068104
   434      1    4.3350751010    0.3364139452  131.9273831990
   435      1    4.3452722552    0.3465851461  135.9251595875
   436      1    4.3554694094    0.3567563469  139.9229359761
   437      1    4.3656665637    0.3669275477  143.9207123647
   438      1    4.3758637179    0.3770987486  147.9184887533
   439      1    4.3860608722    0.3872699494  151.9162651418
   440      1    4.3962580264    0.3974411502  155.9140415304
   441      1    4.0087660911    3.9985531844    0.0007623760
   442      1    4.0189632454    4.0087243852    3.9985387645
   443      1    4.0291603996    4.0188955861    7.9963151531
   444      1    4.0393575538    4.0290667869   11.9940915417
   445      1    4.0495547081    4.0392379877   15.9918679303
   446      1    4.0597518623    4.0494091885   19.9896443188
   447      1    4.0699490166    4.0595803894   23.9874207074
   448      1    4.0801461708    4.0697515902   27.9851970960
   449      1    4.0903433250    4.0799227910   31.9829734846
   450      1    4.1005404793    4.0900939918   35.9807498731
   451      1    4.1107376335    4.1002651927   39.9785262617
   452      1    4.1209347877    4.1104363935   43.9763026503
   453      1    4.1311319420    4.1206075943   47.9740790389
   454      1    4.1413290962    4.1307787951   51.9718554274
   455      1    4.1515262504    4.1409499960   55.9696318160
   456      1    4.1617234047    4.1511211968   59.9674082046
   457      1    4.1719205589    4.1612923976   63.9651845932
   458      1    4.1821177132    4.1714635984   67.9629609817
   459      1    4.1923148674    4.1816347993   71.9607373703
   460      1    4.2025120216    4.1918060001   75.9585137589
   461      1    4.2127091759    4.2019772009   79.9562901475
   462      1    4.2229063301    4.2121484017   83.9540665361
   463      1    4.2331034843    4.2223196026   87.9518429246
   464      1    4.2433006386    4.2324908034   91.9496193132
   465      1    4.2534977928    4.2426620042   95.9473957018
   466      1    4.2636949470    4.2528332051   99.9451720904
   467      1    4.2738921013    4.2630044059  103.9429484789
   468      1    4.2840892555    4.2731756067  107.9407248675
   469      1    4.2942864097    4.2833468075  111.9385012561
   470      1    4.3044835640    4.2935180084  115.9362776447
   471      1    4.3146807182    4.3036892092  119.9340540332
   472      1    4.3248778725    4.3138604100  123.9318304218
   473      1    4.3350750267    4.3240316108  127.9296068104
   474      1    4.3452721809    4.3342028117  131.9273831990
   475      1    4.3554693352    4.3443740125  135.9251595875
   476      1    4.3656664894    4.3545452133  139.9229359761
   477      1    4.3758636436    4.3647164141  143.9207123647
   478      1    4.3860607979    4.3748876150  147.9184887533
   479      1    4.3962579521    4.3850588158  151.9162651418
   480      1    4.4064551063    4.3952300166  155.9140415304