ITEM: TIMESTEP
50100
ITEM: NUMBER OF ATOMS
5000
ITEM: BOX BOUNDS xy xz yz pp pp pp
-9.2766612477994670e-03 4.0339276661246984e+01 0.0000000000000000e+00
-2.3376459537050920e-02 4.0353376459536875e+01 0.0000000000000000e+00
-8.9514873043547993e-03 4.0338951487305906e+01 0.0000000000000000e+00
ITEM: ATOMS id type x y z
1 2 -0.00146411 0.152301 40.0647
2 2 0.113761 0.125056 4.08191
3 2 0.247524 40.2929 8.27095
4 2 0.0345758 40.176 12.2804
5 2 0.230939 40.1583 16.2405
6 2 0.073703 0.0580244 20.0204
7 2 0.332341 0.359437 24.5837
8 2 0.457097 0.0207509 28.373
9 2 0.391105 0.0948985 32.2533
10 2 0.535254 0.0563091 36.4432
11 2 40.2536 4.08409 40.3233
12 2 40.2888 4.22968 3.90593
13 2 0.195894 4.12365 7.97985
14 2 0.306999 4.17941 11.9201
15 2 0.249081 4.23198 16.3701
16 2 0.00675194 4.25834 20.3183
17 2 0.160661 4.5098 24.3682
18 2 0.0254459 4.10239 28.3886
19 2 0.137803 4.40096 32.4761
20 2 0.179435 4.28406 36.3014
21 2 0.00774041 7.87602 0.176545
22 2 0.0228988 8.60475 4.28994
23 2 0.387942 8.09737 8.30713
24 2 0.0157533 8.09308 12.0434
25 2 40.1772 8.30849 16.4374
26 2 0.214999 8.3915 20.1177
27 2 0.00705415 8.13214 24.4502
28 2 40.165 8.46237 28.5208
29 2 40.1031 8.17323 32.3818
30 2 40.159 7.88171 36.4302
31 2 0.105256 12.0225 0.0471251
32 2 40.1961 12.3173 4.35965
33 2 0.345705 12.7867 8.16929
34 2 0.0490994 12.1045 12.0558
35 2 40.3145 12.3105 16.2329
36 2 40.3075 12.4255 20.4254
37 2 0.0206666 12.059 24.1791
38 2 0.0461456 12.005 28.387
39 2 0.0659876 12.38 32.1409
40 2 0.103723 12.0375 36.5414
41 2 0.191967 16.1132 0.307898
42 2 0.353254 16.1087 4.36113
43 2 0.318671 16.2285 7.86765
44 2 40.2396 16.5568 12.0718
45 2 40.327 16.4533 16.4801
46 2 40.2983 16.6246 20.5353
47 2 0.0676818 16.359 24.1212
48 2 0.582674 16.2107 28.1237
49 2 0.422132 16.5153 32.6592
50 2 0.129533 16.1007 36.5346
51 2 0.153614 20.3542 0.288306
52 2 0.00161667 20.5234 4.20945
53 2 0.330221 20.5197 8.12273
54 2 40.1981 20.3074 11.9634
55 2 40.2951 20.1097 16.501
56 2 40.1277 20.3217 20.5219
57 2 -0.00916228 20.1866 24.4837
58 2 0.157411 20.4254 28.5362
59 2 0.429688 20.2235 32.669
60 2 0.230405 20.3481 36.604
61 2 0.367014 24.3533 0.0973896
62 2 0.293054 24.3556 4.06608
63 2 0.0268447 24.1684 7.84579
64 2 0.18917 24.0587 11.9003
65 2 0.373821 24.3243 16.3142
66 2 0.13009 24.1525 20.468
67 2 0.0497528 24.2609 24.4077
68 2 0.201242 24.2158 28.4075
69 2 0.431617 24.7649 32.8099
70 2 0.429402 24.413 36.7331
71 2 0.0717936 28.3805 0.0571624
72 2 0.291796 28.2844 4.04249
73 2 0.0895852 28.5399 8.4832
74 2 0.47364 28.5213 12.4002
75 2 0.210398 28.732 16.2395
76 2 0.42879 28.6986 20.4978
77 2 0.492533 28.4905 24.5917
78 2 0.110037 28.6135 28.7446
79 2 0.461066 28.5346 32.6947
80 2 0.360524 28.5667 36.5213
81 2 40.2466 32.7362 0.0847591
82 2 0.312791 32.4927 3.99193
83 2 0.544825 32.7446 8.34366
84 2 0.386392 32.4513 12.3065
85 2 0.0308301 32.7049 16.3869
86 2 0.00732094 33.1062 20.3626
87 2 0.28272 32.5815 24.1517
88 2 0.300119 32.247 28.7946
89 2 0.398987 32.5235 32.5475
90 2 0.127923 32.4826 36.3604
91 2 40.2478 36.6546 40.2943
92 2 40.2766 36.3543 4.02786
93 2 0.158988 36.5483 8.32176
94 2 0.0195323 36.4336 12.1825
95 2 40.2958 36.4109 16.5777
96 2 40.0601 36.7257 20.3081
97 2 0.419512 36.6932 24.425
98 2 0.292238 36.7845 28.2837
99 2 0.330253 36.9964 32.4198
100 2 0.00997615 36.8576 36.3015
101 2 4.28974 0.0100464 40.124
102 2 4.50291 0.200878 4.41211
103 2 4.26961 0.0835883 7.9902
104 2 4.13265 0.127569 12.2434
105 2 4.11089 40.2645 16.4012
106 2 4.44722 40.2795 20.2626
107 2 4.27052 0.179244 24.3027
108 2 4.27589 0.424681 28.1843
109 2 4.32706 0.102863 32.1575
110 2 4.08166 40.244 36.2541
111 2 4.35228 4.10003 0.143745
112 2 4.50201 4.3712 4.47236
113 2 4.36977 4.14344 8.1363
114 2 3.97085 4.19749 11.9482
115 2 4.17744 4.31579 16.3361
116 2 4.2381 4.14361 20.3075
117 2 4.00004 3.82127 24.7708
118 2 4.41602 4.05464 28.572
119 2 4.33893 4.37684 32.7094
120 2 4.3989 4.27417 36.312
121 2 4.3693 7.93305 0.016336
122 2 4.14279 8.01772 4.06425
123 2 4.47638 8.47378 8.49926
124 2 4.0188 8.17634 12.2518
125 2 4.10771 8.40237 16.5338
126 2 4.35355 8.33793 20.2626
127 2 4.44586 8.02277 24.5722
128 2 4.40631 8.08985 28.371
129 2 4.52566 8.22175 32.4785
130 2 4.48924 7.93182 36.2319
131 2 4.26761 11.9899 0.0905449
132 2 4.40283 12.1579 4.12475
133 2 4.63212 12.5051 8.52057
134 2 4.27082 12.339 11.9375
135 2 4.4839 12.3496 16.1538
136 2 4.32032 12.1239 20.1778
137 2 4.13034 12.2418 24.4483
138 2 3.93284 12.4576 28.3039
139 2 4.61382 11.9794 32.5331
140 2 4.23831 11.8275 36.4703
141 2 4.4454 16.0132 0.235895
142 2 4.20352 16.3544 3.85399
143 2 4.19537 15.9997 8.15513
144 2 4.41051 16.0634 12.2354
145 2 4.25693 16.172 16.2986
146 2 4.16359 16.3633 20.5302
147 2 3.79594 16.3025 24.7114
148 2 4.0368 16.3601 28.2733
149 2 4.32437 16.4621 32.7781
150 2 4.45226 16.1418 36.6487
151 2 4.29695 20.466 0.250327
152 2 4.42414 20.6402 3.93086
153 2 4.25062 20.8002 8.19141
154 2 3.88124 20.4678 12.3725
155 2 4.07329 20.2151 16.4104
156 2 4.06993 20.3201 20.3012
157 2 4.2895 20.2183 24.673
158 2 4.26081 20.0713 28.3642
159 2 4.35772 20.3211 32.7104
160 2 4.45461 20.0971 36.5572
161 2 4.26018 24.6803 0.0268303
162 2 4.47902 24.625 3.78708
163 2 4.11345 24.3039 7.93082
164 2 4.17841 24.3317 12.1486
165 2 4.29116 24.2865 16.5761
166 2 4.00485 24.3365 20.2836
167 2 4.50816 24.3914 24.5227
168 2 4.07975 24.1699 28.3795
169 2 4.5453 24.334 32.8627
170 2 4.30686 24.3976 36.6864
171 2 4.38572 28.5055 0.153562
172 2 4.36241 28.3053 3.97699
173 2 4.03229 28.5024 8.45709
174 2 4.03685 28.5241 12.0156
175 2 4.12784 28.8129 16.4699
176 2 4.0966 28.3302 20.5807
177 2 4.40741 28.3194 24.4561
178 2 4.43513 28.8512 28.2571
179 2 4.25716 28.3971 32.558
180 2 4.1962 28.3529 36.6359
181 2 4.18987 32.5042 0.00556563
182 2 4.37838 32.4523 3.90778
183 2 4.31428 32.7205 8.31836
184 2 4.15986 32.7607 12.1186
185 2 4.20158 32.7759 16.2533
186 2 4.20921 32.6011 20.3471
187 2 3.94257 32.402 24.2951
188 2 4.25473 32.4571 28.3849
189 2 4.12282 32.4813 32.3835
190 2 4.20068 32.5653 36.4608
191 2 4.39364 36.3731 0.160166
192 2 4.02959 36.4879 4.11635
193 2 3.9453 36.4681 8.09293
194 2 4.04549 36.4193 12.1959
195 2 4.22107 36.4057 16.2202
196 2 4.40849 36.4654 20.1203
197 2 4.36128 36.7337 24.2862
198 2 4.10601 36.7846 28.7146
199 2 3.77058 36.6676 32.4095
200 2 3.91965 36.877 36.3312
201 2 8.48748 0.188815 0.099421
202 2 8.28093 40.2801 4.31829
203 2 8.09483 0.423207 8.04128
204 2 8.16532 0.384164 12.0715
205 2 7.84593 0.0895772 16.5346
206 2 7.89135 40.0907 20.2783
207 2 8.27024 0.107684 24.762
208 2 8.48957 0.29128 28.679
209 2 8.59455 0.201068 32.6888
210 2 8.31591 0.0735549 36.262
211 2 8.42816 3.84512 0.194374
212 2 8.0912 3.96162 4.15938
213 2 8.0338 4.36991 7.85994
214 2 7.98376 4.08284 12.1442
215 2 8.43705 4.24695 16.2268
216 2 8.56757 4.01083 20.5205
217 2 8.21936 3.94367 24.7968
218 2 8.34926 3.80711 28.5414
219 2 8.54238 4.18591 32.649
220 2 8.35198 4.17421 36.6443
221 2 8.35875 8.30507 0.122473
222 2 8.28713 8.13871 4.51174
223 2 7.96117 8.17185 7.99277
224 2 7.90593 8.39833 11.9797
225 2 8.21064 8.45879 16.4392
226 2 8.4107 8.40137 20.1758
227 2 8.28325 8.27377 24.4434
228 2 8.26055 8.14908 28.5024
229 2 8.53435 8.1734 32.2149
230 2 8.42592 8.2765 36.28
231 2 7.64767 12.3538 0.552183
232 2 8.47104 12.2376 4.44288
233 2 8.4212 12.0792 7.85272
234 2 7.98249 12.5043 12.11
235 2 8.43625 12.3157 16.3773
236 2 8.4072 12.0939 20.2898
237 2 8.33186 11.9569 24.281
238 2 8.33393 11.871 28.4839
239 2 8.35363 11.7996 32.4048
240 2 8.45753 12.5127 36.6264
241 2 8.29514 16.1253 40.1436
242 2 8.10465 16.2944 4.02348
243 2 8.22469 16.1321 7.89594
244 2 8.51819 16.085 12.364
245 2 8.60112 16.3525 16.1312
246 2 8.38308 16.1243 20.2671
247 2 8.4522 16.0851 24.3577
248 2 8.19324 16.3714 28.5142
249 2 8.28453 16.3163 32.5478
250 2 8.49784 16.2962 36.5219
251 2 8.41918 20.2268 0.427511
252 2 8.41666 20.145 3.97245
253 2 8.22121 20.2155 8.31402
254 2 8.36254 20.1293 12.2688
255 2 8.2597 20.3372 16.5997
256 2 8.46584 20.1947 20.3844
257 2 8.36341 20.0603 24.5438
258 2 8.41807 20.0994 28.577
259 2 8.26501 20.5559 32.1716
260 2 8.27818 20.2629 36.3557
261 2 8.29839 24.387 0.0244786
262 2 7.9511 24.503 4.05829
263 2 8.0525 24.5287 7.97987
264 2 8.15192 24.3364 12.2173
265 2 8.47027 24.2368 16.4973
266 2 8.43978 24.3682 20.4109
267 2 8.14134 24.2767 24.4809
268 2 7.9072 24.5562 28.4413
269 2 8.13925 24.205 32.242
270 2 8.04471 24.3938 36.4736
271 2 8.41349 28.7031 0.052249
272 2 8.07679 28.2707 4.29953
273 2 8.11379 28.2792 8.03056
274 2 7.89501 28.3922 12.2324
275 2 8.26505 28.2317 16.1814
276 2 8.4133 28.5519 20.6018
277 2 7.79108 28.3102 24.4224
278 2 7.9416 28.5419 28.2105
279 2 8.43333 28.7403 32.7423
280 2 8.57108 28.491 36.6583
281 2 8.17115 32.5766 0.347753
282 2 8.25044 32.1363 4.17743
283 2 8.14828 32.3587 8.40077
284 2 7.87739 32.4815 12.1421
285 2 8.10312 32.5544 16.1597
286 2 8.04712 32.581 20.4723
287 2 8.25001 32.0798 24.5737
288 2 8.11522 32.3553 28.3538
289 2 8.86269 32.662 32.5186
290 2 8.58236 32.1629 36.2448
291 2 8.44297 36.5256 0.249795
292 2 8.33585 36.5518 4.06377
293 2 8.23038 36.3682 8.23986
294 2 7.949 36.3623 12.2614
295 2 8.11934 36.4387 16.2669
296 2 8.04275 36.5978 20.7314
297 2 8.21825 36.7822 24.1878
298 2 8.36727 36.5081 28.5712
299 2 8.70066 36.3277 32.6957
300 2 8.42025 36.41 36.4276
301 2 11.9179 0.488258 40.3278
302 2 12.092 0.278438 3.92513
303 2 12.2351 0.287286 8.23331
304 2 12.5255 0.317453 12.5262
305 2 12.5955 0.19521 16.0388
306 2 12.3774 0.139628 20.3726
307 2 12.4202 0.196421 24.8416
308 2 12.0498 0.15315 28.3957
309 2 12.5604 0.132582 32.7217
310 2 12.4091 0.156167 36.584
311 2 12.3369 4.32416 0.0600474
312 2 12.3739 4.0592 3.96084
313 2 12.2079 4.17514 8.22017
314 2 12.2795 4.20221 12.5124
315 2 12.2533 4.09704 16.2555
316 2 12.4785 3.95799 20.4344
317 2 12.4633 4.10513 24.5277
318 2 12.3479 4.08099 28.2904
319 2 12.4686 4.1313 32.6272
320 2 12.4429 4.5239 36.3801
321 2 12.6621 8.30961 0.0608593
322 2 12.1493 8.53369 4.7023
323 2 12.4301 8.16882 8.26338
324 2 12.0718 8.28316 12.2418
325 2 12.3159 8.5875 16.3673
326 2 12.5074 8.44199 20.589
327 2 12.5622 8.24277 24.3083
328 2 12.5125 8.39059 28.4866
329 2 12.7248 8.11059 32.1798
330 2 12.5942 8.26997 36.5658
331 2 12.368 12.5057 0.347532
332 2 11.9808 12.3233 4.52863
333 2 12.3702 12.246 7.99967
334 2 12.3415 12.4469 12.1871
335 2 12.405 12.5205 16.2639
336 2 12.4669 12.1723 20.3612
337 2 12.2774 12.11 24.3794
338 2 12.555 12.1274 28.5067
339 2 12.1879 11.9407 32.2362
340 2 12.6248 12.2714 36.7883
341 2 12.473 16.3243 0.270903
342 2 12.073 16.1055 4.23049
343 2 12.5145 16.3148 8.48372
344 2 12.4697 16.4078 12.3313
345 2 12.2797 16.3193 16.1932
346 2 12.0166 16.1444 20.2125
347 2 12.2117 16.0397 24.4738
348 2 12.242 16.2397 28.4887
349 2 12.3894 16.0004 32.4072
350 2 12.4669 16.1995 36.8135
351 2 12.4922 20.0939 0.536162
352 2 12.6022 20.0417 4.20811
353 2 12.5544 20.1091 8.34378
354 2 12.6203 20.208 11.9741
355 2 12.274 20.2854 16.2421
356 2 12.3913 20.4821 20.5222
357 2 12.2869 20.3599 24.5291
358 2 12.3561 20.3884 28.7816
359 2 12.1016 20.3749 32.8224
360 2 12.1507 20.29 36.8257
361 2 12.1835 24.1065 0.241452
362 2 12.543 24.1693 4.4011
363 2 12.6302 24.3297 8.13177
364 2 12.6774 24.205 12.2684
365 2 12.6227 24.2399 16.1918
366 2 12.1573 24.2589 20.5171
367 2 12.0359 24.5162 24.5487
368 2 12.2914 24.3668 28.7999
369 2 12.1746 24.0148 32.3188
370 2 12.2059 24.2272 36.835
371 2 12.1971 28.1797 0.280848
372 2 12.4616 28.3943 4.1347
373 2 12.4582 28.5338 8.02969
374 2 12.4376 28.272 12.1818
375 2 12.6351 28.0556 16.1924
376 2 11.9936 28.2158 20.5805
377 2 12.5403 28.2665 24.482
378 2 12.597 28.2792 28.6288
379 2 12.1264 28.4864 32.4306
380 2 12.1918 28.7769 36.3681
381 2 12.3048 32.3035 0.294169
382 2 12.1148 32.3395 4.11012
383 2 12.1976 32.367 8.01456
384 2 12.5837 32.5506 12.1734
385 2 12.1922 32.365 16.3277
386 2 11.9055 32.1791 20.5334
387 2 12.3213 32.0856 24.4393
388 2 12.4326 32.3794 28.6314
389 2 12.2963 32.3541 32.1348
390 2 12.1546 32.495 36.1182
391 2 12.2024 36.5394 0.272068
392 2 11.8176 36.6687 4.22784
393 2 12.1165 36.603 8.42094
394 2 12.3081 36.2955 12.5415
395 2 12.3292 36.4549 16.5936
396 2 12.2412 36.7818 20.5948
397 2 12.4254 36.3735 24.6608
398 2 12.0277 36.3504 28.6146
399 2 12.3578 35.9849 32.1132
400 2 12.2092 36.2287 36.2835
401 2 16.5918 -0.00345969 0.185163
402 2 16.5568 0.239012 3.96159
403 2 16.288 0.404045 8.48817
404 2 16.6422 0.386995 12.4177
405 2 16.4744 0.317775 16.2913
406 2 16.404 0.432018 20.4005
407 2 16.2202 -0.0124487 24.9126
408 2 16.1368 -0.00769465 28.3416
409 2 16.1933 40.3155 32.6267
410 2 16.278 40.2496 36.3624
411 2 16.0069 4.57715 0.541663
412 2 16.4635 4.12039 4.05092
413 2 16.3949 4.30941 8.35093
414 2 16.0192 3.87028 12.3505
415 2 16.3955 4.24396 16.6848
416 2 16.6317 4.06175 20.4003
417 2 15.9086 4.62177 24.4409
418 2 16.3057 4.3243 28.1653
419 2 16.4344 4.20485 32.4508
420 2 16.446 4.29835 36.2474
421 2 15.9822 8.10578 0.2895
422 2 16.1948 8.03455 4.37857
423 2 16.1403 8.10916 8.15134
424 2 16.1818 8.29655 12.1472
425 2 16.2941 8.03369 16.5457
426 2 16.3727 8.43263 20.3786
427 2 16.2131 8.42027 24.0814
428 2 16.4615 8.10002 28.1408
429 2 16.5124 7.86124 32.6797
430 2 16.493 8.59353 36.4967
431 2 16.3575 12.2457 0.158232
432 2 16.2605 12.4629 4.27492
433 2 16.4845 12.5201 8.36239
434 2 16.4176 12.2997 11.9413
435 2 16.3759 12.4148 16.4492
436 2 16.497 12.2525 20.519
437 2 16.5635 11.9911 24.3598
438 2 16.4287 12.0642 28.3817
439 2 16.3585 12.1509 32.2746
440 2 16.5064 12.4653 36.9085
441 2 16.3426 16.5626 -0.0232831
442 2 16.5811 16.4455 4.45033
443 2 16.5191 16.063 8.41766
444 2 16.3353 16.2424 12.5422
445 2 16.5844 16.3368 16.3179
446 2 16.6727 16.3274 20.2854
447 2 16.5397 16.3357 24.5095
448 2 16.3535 16.468 28.3539
449 2 16.5639 16.2166 32.9077
450 2 16.5738 16.2099 36.7427
451 2 16.3204 20.0416 0.0756919
452 2 16.5076 20.195 4.28851
453 2 16.2967 20.049 8.03005
454 2 16.6176 20.4822 12.0685
455 2 16.3064 20.1733 16.3587
456 2 16.4807 20.3697 20.507
457 2 16.6127 20.5463 24.3561
458 2 16.5747 20.2521 28.7339
459 2 16.5772 20.4489 32.8909
460 2 16.3712 19.9322 36.7135
461 2 16.3682 24.4741 0.33588
462 2 16.5027 24.7082 4.57647
463 2 16.5348 24.4192 8.12359
464 2 16.4587 24.3251 12.351
465 2 16.2996 24.5688 16.2777
466 2 16.5144 24.5657 20.1334
467 2 16.3294 24.3565 24.536
468 2 16.4668 24.5786 28.5908
469 2 16.357 24.258 32.7303
470 2 16.2987 24.2582 36.6328
471 2 16.1274 28.3179 0.245545
472 2 16.5359 28.2132 4.33086
473 2 16.4809 28.29 8.13191
474 2 16.5193 28.4349 12.5261
475 2 16.2869 28.1212 16.4147
476 2 16.2764 28.1595 20.1173
477 2 16.253 28.5402 24.7211
478 2 16.2746 28.1137 28.466
479 2 16.1645 28.2213 32.3295
480 2 16.0481 28.3277 36.4591
481 2 16.5453 32.3659 0.121488
482 2 16.2843 32.1608 4.01658
483 2 16.2448 32.3732 8.20328
484 2 16.455 32.4703 12.2237
485 2 16.4848 32.6666 16.5476
486 2 16.416 32.4762 20.4938
487 2 16.2348 32.4849 24.6833
488 2 16.0405 32.0424 28.1901
489 2 16.2548 32.4307 32.0183
490 2 16.0543 32.1065 36.4338
491 2 16.5774 36.677 40.2811
492 2 16.4485 36.614 4.09982
493 2 16.5168 36.5002 8.23335
494 2 16.3762 36.633 12.3039
495 2 16.3524 36.6988 16.2837
496 2 16.3391 36.5841 20.4831
497 2 16.0956 36.7144 24.7432
498 2 16.0561 36.4559 28.466
499 2 16.2465 36.1218 32.2877
500 2 16.5265 36.3194 36.5706
501 2 20.508 40.1602 0.0987
502 2 20.4947 0.103858 4.06684
503 2 20.6132 0.0990527 8.56944
504 2 20.2293 0.0777806 12.6984
505 2 20.4595 40.2245 16.3441
506 2 20.1709 0.391844 20.4519
507 2 20.6502 0.376941 24.1837
508 2 20.2013 40.3049 28.2479
509 2 20.5195 0.00912765 32.1347
510 2 20.2172 40.2832 36.4902
511 2 20.1836 4.24174 0.203514
512 2 20.4846 4.35132 4.22001
513 2 20.5761 4.53281 8.22732
514 2 20.4412 4.58675 12.7788
515 2 20.7848 4.30516 16.254
516 2 20.4664 4.13006 20.4282
517 2 20.6892 4.21819 24.5135
518 2 20.4633 4.22112 28.1655
519 2 20.364 3.89561 32.5633
520 2 20.2187 4.15228 36.4979
521 2 20.1731 8.22143 0.190895
522 2 20.411 7.98716 4.2363
523 2 20.3081 8.13442 8.15368
524 2 20.7272 8.3498 12.3161
525 2 20.5004 7.93322 16.1906
526 2 20.2178 8.47284 20.3263
527 2 20.309 8.39024 24.1131
528 2 20.4008 8.32726 27.8604
529 2 20.4001 8.33828 32.5903
530 2 20.1822 8.3396 36.7076
531 2 20.357 12.3992 -0.0184663
532 2 20.4381 12.5552 4.57375
533 2 20.2283 12.4605 8.64494
534 2 20.6761 12.5671 12.3373
535 2 20.4002 12.4627 16.0769
536 2 20.2934 12.5862 20.5072
537 2 20.5499 12.4956 24.1188
538 2 20.3876 11.9448 28.115
539 2 20.4272 12.5336 32.5427
540 2 20.1769 12.5868 36.3258
541 2 20.1996 16.2488 40.1063
542 2 20.0218 16.2646 4.66584
543 2 19.9012 16.1568 8.37382
544 2 20.0574 16.1461 12.4448
545 2 20.1081 16.0275 16.1901
546 2 20.0896 16.1351 20.5136
547 2 20.4647 16.1515 24.5179
548 2 20.3132 16.3224 28.2323
549 2 20.2969 16.1669 32.7279
550 2 19.8608 16.1303 36.3025
551 2 20.117 20.003 0.190322
552 2 20.4278 20.1126 4.40757
553 2 19.9524 20.2983 8.49172
554 2 20.1295 20.4084 12.2317
555 2 20.187 20.2929 16.2334
556 2 20.2819 20.272 20.5322
557 2 20.268 20.1779 24.5552
558 2 20.4702 20.4496 28.6882
559 2 20.0272 20.322 32.6364
560 2 19.9124 20.0725 36.5241
561 2 20.4515 24.4787 0.279117
562 2 20.68 24.5559 4.40905
563 2 20.5145 24.1715 8.45434
564 2 20.4572 24.2574 12.2779
565 2 20.3017 24.4556 15.9836
566 2 20.2697 24.2114 20.1246
567 2 20.2704 24.3057 24.4918
568 2 20.2004 24.633 28.607
569 2 20.0321 24.3251 32.4312
570 2 20.3834 24.6293 36.3898
571 2 20.193 28.2095 0.39995
572 2 20.2267 28.2853 4.59591
573 2 20.6176 28.8453 8.3679
574 2 20.6505 28.5651 12.3092
575 2 20.1512 28.1328 15.9625
576 2 20.0705 28.2515 20.2701
577 2 20.1814 28.5699 24.5377
578 2 20.1828 28.1494 28.2556
579 2 20.1384 28.3686 32.2385
580 2 20.1848 28.219 36.3054
581 2 20.6634 32.7837 0.228624
582 2 20.7738 32.6806 4.34915
583 2 20.6128 32.781 8.10876
584 2 20.5986 32.5902 12.1954
585 2 20.588 32.3919 16.0584
586 2 20.6035 32.6533 20.4199
587 2 20.2451 32.6299 24.5684
588 2 20.3146 32.5751 28.7788
589 2 20.508 32.3163 32.1767
590 2 20.3824 32.6192 36.6841
591 2 20.1852 36.4895 0.143893
592 2 20.4518 36.1354 4.06344
593 2 20.446 36.3875 8.26785
594 2 20.4974 36.3413 12.464
595 2 20.6712 36.5849 16.1361
596 2 20.6436 36.6484 20.3611
597 2 20.3333 36.2524 24.642
598 2 20.4748 36.753 28.5428
599 2 20.3466 36.5462 32.1573
600 2 20.0172 36.4229 36.8585
601 2 24.1422 40.1649 0.0431822
602 2 24.5204 0.0164429 4.33651
603 2 24.3528 0.122779 8.56515
604 2 24.2096 40.2306 12.5763
605 2 24.2454 0.025641 16.4516
606 2 24.2536 0.389797 20.2158
607 2 24.7744 0.0646849 24.3665
608 2 24.4492 0.224603 28.3484
609 2 24.6605 0.370902 32.3095
610 2 24.491 0.141553 36.5639
611 2 24.3874 4.01809 0.00114588
612 2 24.6328 4.22884 4.39348
613 2 24.5674 4.34463 8.24194
614 2 24.32 4.04051 12.6877
615 2 24.3796 3.86033 16.6151
616 2 24.0355 3.93116 20.3238
617 2 24.4325 3.74045 24.2661
618 2 24.6742 4.14872 28.3244
619 2 24.7366 4.135 32.3826
620 2 24.5849 4.26537 36.5061
621 2 24.4108 8.30085 0.141512
622 2 24.1126 8.04007 4.31784
623 2 24.2826 8.41465 8.39927
624 2 24.5852 8.23495 12.4455
625 2 24.4461 8.07364 16.6501
626 2 24.1312 8.37055 20.4954
627 2 24.5697 8.32706 24.1724
628 2 24.3465 8.47792 28.1068
629 2 24.368 8.31092 32.5898
630 2 24.307 8.36824 36.4979
631 2 24.352 12.2583 0.178957
632 2 24.3293 12.5338 4.56189
633 2 24.0746 12.418 8.38131
634 2 24.3246 12.5213 12.4679
635 2 24.692 12.6052 16.2039
636 2 24.5236 12.599 20.6725
637 2 24.5237 12.4065 24.1173
638 2 24.3291 11.899 28.402
639 2 24.5004 12.6068 32.4725
640 2 24.1593 12.4672 36.2893
641 2 24.3124 16.5454 0.087643
642 2 24.3948 16.4319 4.57455
643 2 24.2029 15.9925 8.45571
644 2 24.698 16.441 12.5386
645 2 24.5687 16.2432 16.2892
646 2 24.4276 16.2086 20.1483
647 2 24.3992 16.1078 24.2774
648 2 24.4824 16.5807 28.0982
649 2 24.6963 16.5385 32.5246
650 2 24.4874 16.3686 36.3969
651 2 24.6519 20.2062 0.235275
652 2 24.5692 20.2753 4.57477
653 2 24.6826 20.1668 8.42242
654 2 24.5848 20.2301 12.2154
655 2 24.5394 20.2402 16.2834
656 2 24.5295 20.5172 20.3557
657 2 24.6235 20.6243 24.2972
658 2 24.5746 20.5566 28.6858
659 2 24.6602 20.3557 32.4172
660 2 24.5035 20.3688 36.5191
661 2 24.5717 24.4999 0.407016
662 2 24.4983 24.4517 4.44939
663 2 24.5255 24.4627 8.34601
664 2 24.618 24.6356 12.2821
665 2 24.5737 24.5121 16.2091
666 2 24.4175 24.4185 20.5
667 2 24.5642 24.6995 24.3568
668 2 24.2124 24.3146 28.5841
669 2 24.2594 24.5131 32.7882
670 2 24.2703 24.6012 36.4512
671 2 24.4165 28.3345 0.499904
672 2 24.4143 28.585 4.50291
673 2 24.554 28.2941 8.17012
674 2 24.2589 28.4057 12.2772
675 2 24.642 28.5566 16.189
676 2 24.5705 28.2145 20.1497
677 2 24.5636 28.2924 24.5743
678 2 24.4358 28.2205 28.6423
679 2 24.3719 28.2749 32.5548
680 2 24.5372 28.1876 36.3062
681 2 24.5749 32.3946 0.355353
682 2 24.1082 32.4461 4.48158
683 2 24.0186 32.4108 8.08887
684 2 24.2597 32.8016 12.5403
685 2 24.4613 32.6382 16.139
686 2 24.317 32.509 20.13
687 2 24.7373 32.4645 24.5724
688 2 24.2286 32.3512 28.3855
689 2 24.0613 32.2153 32.2106
690 2 24.2221 32.463 36.7377
691 2 24.4696 36.1501 0.194935
692 2 24.089 36.0821 4.22883
693 2 24.1289 36.2623 8.44251
694 2 24.1253 36.3186 12.7667
695 2 24.1963 36.59 16.5446
696 2 24.328 36.4411 20.2268
697 2 24.7962 36.6201 24.4269
698 2 24.5693 36.5192 28.1412
699 2 24.423 36.4666 32.2494
700 2 24.559 36.3413 36.5793
701 2 28.3915 -0.0327003 0.035649
702 2 28.2988 0.00479229 4.18437
703 2 28.5449 40.3305 8.5081
704 2 28.5808 40.3056 12.2974
705 2 28.0582 0.092898 16.6364
706 2 28.3448 0.430653 20.2686
707 2 28.2822 0.136616 24.1826
708 2 28.6164 0.15228 28.2867
709 2 28.2383 0.448497 32.2971
710 2 28.4852 0.145716 36.2392
711 2 28.4252 4.08004 0.169769
712 2 28.6417 4.48016 4.34682
713 2 28.6485 4.33273 8.44608
714 2 28.5256 4.17366 12.4023
715 2 28.3187 3.9935 16.6711
716 2 28.6421 4.42668 20.455
717 2 28.2868 4.2092 24.0329
718 2 28.6125 4.17641 28.4718
719 2 28.5763 4.2777 32.4268
720 2 28.383 4.03355 36.3032
721 2 28.5443 8.33053 0.125163
722 2 28.5794 8.11687 4.42629
723 2 28.7504 8.19784 8.48543
724 2 28.4862 8.01665 12.3515
725 2 28.718 8.29804 16.5631
726 2 28.7575 8.10243 20.694
727 2 28.2511 8.62845 24.1253
728 2 28.3287 8.85916 28.3334
729 2 28.5832 8.43372 32.532
730 2 28.5945 8.1225 36.249
731 2 28.4509 12.5839 0.279743
732 2 28.5531 12.324 4.02859
733 2 28.6423 12.3242 8.54807
734 2 28.6526 12.2262 12.2798
735 2 28.5258 12.5705 16.6555
736 2 28.6252 12.2613 20.377
737 2 28.015 12.1866 24.4685
738 2 28.2488 12.2844 28.8114
739 2 28.4963 12.6661 32.2167
740 2 28.7932 12.6582 36.5677
741 2 28.7608 16.5191 0.0623425
742 2 28.6666 16.5052 4.15791
743 2 28.7224 16.2109 8.46797
744 2 28.2994 16.4749 12.632
745 2 28.0262 16.1687 16.6508
746 2 28.0291 16.0288 20.2336
747 2 28.1374 16.1537 24.5395
748 2 28.0916 16.3865 28.3668
749 2 28.2254 16.3976 31.9866
750 2 28.5529 16.4578 35.9362
751 2 28.8555 20.3957 40.2188
752 2 28.3125 20.2646 4.58071
753 2 28.427 20.0511 8.41371
754 2 28.6245 20.0541 12.2486
755 2 28.254 19.9306 16.4328
756 2 28.4753 20.2603 20.1918
757 2 28.3941 20.2606 24.3139
758 2 28.4776 20.5526 28.3224
759 2 28.1515 20.1984 32.1278
760 2 28.46 20.3068 36.3638
761 2 28.263 24.4583 0.371094
762 2 28.1531 24.1506 4.327
763 2 28.4507 24.4516 7.91622
764 2 28.3613 24.5454 12.2902
765 2 28.5086 24.5999 16.5284
766 2 28.5124 24.2792 20.5855
767 2 28.134 24.8245 24.2776
768 2 28.2661 24.5412 28.1432
769 2 28.1602 24.6152 32.6688
770 2 28.5695 24.382 36.4531
771 2 28.4799 28.3363 0.169453
772 2 28.0473 28.518 4.23058
773 2 28.1777 28.2173 8.05025
774 2 28.4697 28.293 12.2835
775 2 28.4253 28.3669 16.4214
776 2 28.4784 28.1627 20.2776
777 2 28.3779 28.2493 23.922
778 2 28.5482 28.577 28.3809
779 2 28.5818 28.4251 32.2453
780 2 28.462 28.4869 36.4989
781 2 28.1882 32.2623 0.146056
782 2 28.1721 32.3924 4.01473
783 2 28.3258 32.8385 8.39894
784 2 27.9165 32.4049 12.6605
785 2 28.3338 32.3282 16.2068
786 2 28.4814 32.4215 20.251
787 2 28.7777 32.5269 24.6823
788 2 28.8504 32.4445 28.278
789 2 28.707 32.5462 32.0305
790 2 28.4322 32.2215 36.4367
791 2 28.3619 36.1532 0.308441
792 2 28.2237 36.2414 4.24579
793 2 28.5082 36.4303 8.5686
794 2 28.2046 36.3602 12.5132
795 2 28.3242 36.6564 16.5689
796 2 28.5729 36.511 20.395
797 2 28.8141 36.5977 24.2869
798 2 28.6287 36.6214 28.138
799 2 28.4716 36.6402 32.2867
800 2 28.4976 36.3447 36.4419
801 2 32.8404 0.180171 -0.00224528
802 2 32.298 0.0913744 4.0807
803 2 32.3155 0.146969 8.35085
804 2 32.3337 0.225935 12.3687
805 2 32.4178 0.190144 16.4571
806 2 32.5707 0.44256 20.1075
807 2 32.4464 0.0137164 24.3033
808 2 32.6566 0.0158823 28.1416
809 2 32.5074 0.243585 32.4455
810 2 32.506 0.0759665 36.2845
811 2 32.7028 4.11596 0.0374546
812 2 32.8601 4.50453 4.1358
813 2 32.5124 4.33849 8.11012
814 2 32.4517 4.23442 12.5613
815 2 32.2466 4.42044 16.6958
816 2 32.3169 4.51962 20.3197
817 2 32.3557 4.26018 24.0776
818 2 32.3409 4.36928 28.5305
819 2 32.4954 4.48866 32.4987
820 2 32.3831 4.20704 36.1854
821 2 32.751 8.56494 0.0811635
822 2 32.7193 8.46788 4.39865
823 2 32.3865 8.60754 8.36508
824 2 32.6927 8.34649 12.2173
825 2 32.7492 8.09387 16.4555
826 2 32.2758 8.06135 19.9799
827 2 32.2724 8.53291 23.8175
828 2 32.5122 8.58653 28.3589
829 2 32.6275 8.42495 32.3329
830 2 32.4335 7.94085 36.1401
831 2 32.8177 12.4929 40.2107
832 2 32.8263 12.0623 4.16384
833 2 32.2008 12.3905 8.5009
834 2 32.5571 12.3097 12.4692
835 2 32.5284 12.3129 16.4318
836 2 32.5977 12.1406 20.5394
837 2 32.6939 12.0673 24.1517
838 2 32.3075 12.5545 28.4769
839 2 32.3941 12.6238 32.2247
840 2 32.3465 12.6636 36.547
841 2 32.7377 16.286 40.1676
842 2 32.6459 16.1878 4.02744
843 2 32.4346 16.1762 8.26144
844 2 32.512 16.4073 12.5358
845 2 32.3708 16.1339 16.2744
846 2 32.4999 15.9939 20.1826
847 2 32.4733 15.9928 24.3801
848 2 32.1343 16.0102 28.1243
849 2 32.4778 16.2696 32.4421
850 2 32.2199 16.2303 36.8526
851 2 32.6812 20.1112 0.114201
852 2 32.4409 20.3893 4.05962
853 2 32.3604 20.4702 8.17453
854 2 32.3652 20.2323 12.3415
855 2 32.5112 19.8995 16.3013
856 2 32.4336 20.3612 20.2221
857 2 32.6785 20.7107 24.3465
858 2 32.5644 20.594 28.4654
859 2 32.5371 20.6604 32.3077
860 2 32.7709 20.6615 36.8582
861 2 32.4765 24.3306 40.0273
862 2 32.6683 24.4457 4.11192
863 2 32.3644 24.2118 8.01558
864 2 32.6839 24.1107 12.3508
865 2 32.5738 24.3474 16.2791
866 2 32.3445 24.2477 20.2779
867 2 32.5983 24.4741 24.0288
868 2 32.6412 24.3638 28.3711
869 2 32.5143 24.7548 32.4839
870 2 32.595 24.7189 36.2164
871 2 32.2604 28.762 40.1558
872 2 32.6333 28.4226 4.42812
873 2 32.5454 28.1913 8.29415
874 2 32.4707 28.4252 11.9833
875 2 32.4407 28.3958 16.3771
876 2 32.1997 28.1906 20.3856
877 2 32.276 28.4512 24.0553
878 2 32.3115 28.6563 28.0898
879 2 32.654 28.3515 32.5034
880 2 32.5064 28.7024 36.304
881 2 32.3689 32.6523 40.1319
882 2 32.4131 32.2075 4.18318
883 2 32.5557 32.4088 8.1496
884 2 32.3259 32.2897 12.267
885 2 32.3392 32.3836 16.4225
886 2 32.2746 31.9389 20.0719
887 2 32.3506 32.3771 24.2318
888 2 32.3572 32.4834 28.0273
889 2 32.3228 32.3197 32.4134
890 2 32.4365 32.5615 36.0935
891 2 32.4975 36.3717 40.0693
892 2 32.4868 36.2551 4.30968
893 2 32.4385 36.1715 8.05628
894 2 32.7123 36.2935 12.2813
895 2 32.8974 36.5555 16.2933
896 2 32.709 36.4166 20.3561
897 2 32.496 36.3274 24.0729
898 2 32.5361 36.3345 28.2003
899 2 32.7537 36.5756 32.8557
900 2 32.945 36.6805 36.4318
901 2 36.5207 0.132179 0.0754496
902 2 36.7157 0.189734 4.04406
903 2 36.2099 0.38423 8.09396
904 2 36.5259 0.0895341 12.4068
905 2 36.4889 40.2038 16.2927
906 2 36.3778 0.193501 20.2826
907 2 36.3643 0.211274 24.1881
908 2 36.6046 40.2878 28.2182
909 2 36.7487 0.575838 32.3479
910 2 36.7354 0.468867 36.5712
911 2 36.6902 4.15284 40.0959
912 2 36.6658 4.21193 3.84198
913 2 36.5882 4.20988 8.03598
914 2 36.2655 4.38376 12.0153
915 2 36.1922 4.41255 16.3932
916 2 36.1325 4.36046 20.305
917 2 36.3297 4.32221 24.2665
918 2 36.4541 4.24834 28.2895
919 2 36.9306 4.49525 32.4152
920 2 36.812 4.29017 36.4753
921 2 36.9312 8.11444 0.180646
922 2 36.2616 8.5702 3.8866
923 2 36.3154 8.24434 8.50361
924 2 36.4258 8.26563 12.242
925 2 36.522 8.20796 15.9868
926 2 36.0951 8.25087 20.1522
927 2 36.0018 8.51036 24.757
928 2 36.4699 8.72259 28.2019
929 2 36.4137 8.33078 32.3345
930 2 36.6038 8.10733 36.2963
931 2 36.5203 12.0702 0.0557322
932 2 36.4197 12.3497 4.61397
933 2 36.347 12.5303 8.19541
934 2 36.6619 12.234 11.9291
935 2 36.7698 12.0791 16.3558
936 2 36.508 12.2797 20.5415
937 2 36.3285 12.1963 24.4462
938 2 36.4356 12.1306 28.0315
939 2 36.4687 12.5956 32.362
940 2 36.2922 12.3837 36.5428
941 2 36.3025 16.4852 40.3335
942 2 36.9223 16.2383 4.25914
943 2 36.7376 16.5984 8.04032
944 2 36.6107 16.5182 12.0578
945 2 35.9202 16.5005 16.1997
946 2 36.2666 16.4414 20.5501
947 2 36.3783 16.3787 24.4816
948 2 36.2678 16.365 28.197
949 2 36.2645 16.3231 32.6785
950 2 36.1696 16.3432 36.5164
951 2 36.5079 20.4885 40.1426
952 2 36.358 20.1566 4.28426
953 2 36.7764 20.062 7.94815
954 2 36.2697 20.0936 12.629
955 2 36.2821 20.0546 16.4893
956 2 36.2485 20.3447 20.5142
957 2 36.2091 20.4291 24.3218
958 2 36.2622 20.3924 28.3145
959 2 36.2021 20.3429 32.4371
960 2 36.383 20.3973 36.4891
961 2 36.5326 24.4118 40.2846
962 2 36.5258 24.3382 3.94545
963 2 36.5288 24.5017 7.81137
964 2 36.6513 24.4811 12.3277
965 2 36.6688 24.2991 16.2283
966 2 36.2427 24.3044 20.4755
967 2 36.1675 24.1169 24.4967
968 2 36.4883 24.4261 28.5937
969 2 36.1377 24.2744 32.8965
970 2 36.1671 24.648 36.4057
971 2 36.5374 28.4362 0.0632746
972 2 36.284 28.283 4.14689
973 2 36.4051 28.4289 8.24919
974 2 36.5528 28.2838 12.2575
975 2 36.484 28.6431 16.2252
976 2 36.6469 28.4031 20.4608
977 2 36.4826 28.7521 24.3733
978 2 36.71 28.6367 28.4659
979 2 36.7973 28.7089 32.43
980 2 36.6788 28.6084 36.6556
981 2 36.2292 32.8009 0.174058
982 2 36.2353 32.4354 3.92106
983 2 36.3057 32.2564 8.12655
984 2 36.2512 32.2155 12.0636
985 2 36.1749 32.5941 16.5705
986 2 36.142 32.71 20.248
987 2 36.5029 32.5842 24.1779
988 2 36.9084 32.4647 28.5361
989 2 36.6969 32.521 32.2931
990 2 36.5526 32.872 36.2803
991 2 36.1782 36.6792 40.0538
992 2 36.1156 36.6454 3.98865