ITEM: TIMESTEP
50100
ITEM: NUMBER OF ATOMS
5000
ITEM: BOX BOUNDS xy xz yz pp pp pp
-2.0241049677250089e-01 4.0532410496772485e+01 0.0000000000000000e+00
-2.4164971247799372e-02 4.0354164971249048e+01 0.0000000000000000e+00
-9.8023259835120058e-02 4.0428023259835051e+01 0.0000000000000000e+00
ITEM: ATOMS id type x y z
1 2 0.154098 0.252789 -0.00762791
2 2 40.5099 0.0568959 4.47134
3 2 -0.14985 0.167501 8.2745
4 2 0.0223864 0.385189 12.4271
5 2 -0.111272 0.07429 16.5297
6 2 0.0495714 -0.00565021 20.4634
7 2 -0.0311419 0.0134091 24.2161
8 2 -0.00030061 0.13007 28.6729
9 2 0.173851 0.43892 32.564
10 2 0.112403 0.236605 36.3748
11 2 40.5288 4.67359 0.0506295
12 2 40.4158 4.31425 4.39175
13 2 -0.196037 4.40995 8.13011
14 2 0.307182 4.47114 11.8981
15 2 0.222974 4.2321 16.2041
16 2 0.3513 4.34147 20.3223
17 2 -0.118587 4.35364 24.2716
18 2 0.230438 4.37528 28.5971
19 2 0.226626 4.10964 32.5874
20 2 0.203442 4.04638 36.7202
21 2 0.180248 8.3529 0.203846
22 2 -0.123586 8.1339 4.52373
23 2 -0.151581 7.95633 8.25988
24 2 0.409745 8.1094 12.111
25 2 0.176069 8.29494 16.0996
26 2 0.359898 8.4236 20.5285
27 2 0.036832 8.13322 24.6764
28 2 0.110058 8.21566 28.3009
29 2 0.160602 8.35136 32.417
30 2 0.100891 8.12449 36.6343
31 2 0.0940813 12.237 0.378073
32 2 0.0895241 11.9589 4.03592
33 2 0.0551799 11.7615 7.82837
34 2 0.0991324 12.2836 11.9744
35 2 0.112944 12.2045 16.1043
36 2 0.124465 12.3551 20.339
37 2 0.0114673 12.5674 24.4038
38 2 0.0751686 12.4586 28.3701
39 2 0.20895 12.127 32.1125
40 2 0.219148 12.117 36.6213
41 2 0.217896 16.3493 0.217493
42 2 0.026582 16.137 4.14643
43 2 0.340321 16.1312 8.01875
44 2 0.20925 16.0478 12.3904
45 2 0.146195 16.1324 16.1563
46 2 0.188064 16.3382 20.6134
47 2 40.5193 16.527 24.4416
48 2 0.276234 16.306 28.674
49 2 0.148025 16.6764 32.3291
50 2 -0.0279017 16.4848 36.3991
51 2 0.0411828 20.5857 0.0480439
52 2 0.181671 20.4399 3.95427
53 2 0.0279243 20.3877 7.79474
54 2 0.140938 20.1837 12.4429
55 2 0.0902779 20.2598 16.3287
56 2 0.277131 20.4141 20.2812
57 2 -0.0692105 20.2505 24.3117
58 2 -0.0650654 20.1633 28.4767
59 2 0.170135 20.553 32.6325
60 2 -0.0678255 20.1594 36.7689
61 2 0.160668 24.345 0.104324
62 2 0.109865 24.4915 4.25989
63 2 0.144363 23.9522 8.17168
64 2 0.337964 24.3979 12.2575
65 2 0.315212 24.2179 16.4108
66 2 0.318881 24.109 20.3097
67 2 -0.0782508 24.2566 24.5499
68 2 0.103608 24.3536 28.0975
69 2 0.0573509 24.058 32.6209
70 2 -0.0453644 24.3024 36.8122
71 2 -0.0460823 28.8099 0.264683
72 2 -0.0214002 28.793 4.28038
73 2 0.220447 28.4293 7.96998
74 2 0.0249793 28.2413 12.2701
75 2 0.43443 28.2614 16.357
76 2 0.0193975 28.3191 20.5557
77 2 0.126674 28.3696 24.2232
78 2 0.0522621 28.3137 28.1942
79 2 -0.0111194 28.1298 32.7073
80 2 -0.125275 28.3735 36.8487
81 2 40.393 32.4108 0.268196
82 2 40.4664 32.7089 4.41638
83 2 0.226282 32.6143 8.25623
84 2 0.0858341 32.6792 11.8965
85 2 0.435136 32.6009 16.5424
86 2 -0.0586248 32.1655 20.2957
87 2 -0.116111 32.3737 24.2655
88 2 0.0629287 32.2582 28.5516
89 2 -0.00372763 32.1309 32.711
90 2 40.4266 32.2399 36.9917
91 2 40.3775 36.2949 0.132749
92 2 40.4534 36.2754 4.28825
93 2 0.0177114 36.0046 8.2219
94 2 0.0607308 36.3102 11.9226
95 2 0.357915 36.4803 16.3457
96 2 0.0545205 36.5995 20.5137
97 2 -0.0476229 36.3148 24.5048
98 2 -0.00207672 36.3504 28.4581
99 2 -0.104369 36.602 32.8466
100 2 40.5146 36.1446 36.6493
101 2 3.53423 0.270717 0.252096
102 2 3.92857 0.274141 4.17517
103 2 3.93767 40.2456 8.18663
104 2 4.25309 40.3325 12.3977
105 2 4.27423 0.333046 16.513
106 2 4.04739 0.166292 20.5836
107 2 4.10437 0.090271 24.4364
108 2 4.30015 0.110219 28.5672
109 2 3.97812 0.386226 32.8922
110 2 3.89892 0.284722 36.5011
111 2 4.39779 4.47541 0.12429
112 2 3.93482 4.43084 3.9643
113 2 4.08462 4.23839 8.1746
114 2 4.10884 4.40252 11.9371
115 2 3.98617 4.30268 16.5481
116 2 3.98946 4.23287 20.1355
117 2 4.32224 4.05073 24.5939
118 2 4.30883 4.21588 28.449
119 2 4.13523 3.85775 32.8358
120 2 4.11221 4.01401 36.6427
121 2 4.20709 8.04469 0.322404
122 2 4.12578 8.36215 3.93595
123 2 4.0941 8.5283 8.14365
124 2 4.22948 8.50511 12.523
125 2 4.28907 8.30679 16.071
126 2 4.278 8.29668 20.4433
127 2 4.24908 8.25477 24.5864
128 2 4.2069 7.9268 28.4892
129 2 4.27493 8.56101 32.5366
130 2 4.22177 8.41086 36.6922
131 2 4.01276 12.2421 0.152687
132 2 3.99284 12.0184 4.02565
133 2 3.80409 12.176 8.10902
134 2 4.2334 12.2607 12.1927
135 2 4.35421 11.9521 16.1619
136 2 4.28204 12.3775 20.5108
137 2 4.13432 12.4893 24.6055
138 2 4.05862 12.4555 28.5181
139 2 4.22855 12.3222 32.1878
140 2 4.19474 12.3323 36.3705
141 2 3.78089 16.5678 0.138339
142 2 3.95594 16.4764 3.87351
143 2 3.86339 16.4596 8.01451
144 2 4.27881 16.0176 12.1553
145 2 4.48686 16.3304 16.3436
146 2 4.02982 16.2203 20.715
147 2 4.13385 16.3807 24.509
148 2 3.97817 16.4887 28.3998
149 2 4.04712 16.2802 32.6931
150 2 3.94453 16.0421 36.5358
151 2 3.88855 20.429 0.346498
152 2 3.94952 20.6089 4.29402
153 2 3.7565 20.7932 8.30108
154 2 4.20779 20.4087 11.8999
155 2 4.4116 20.4302 16.2978
156 2 4.27909 20.4351 20.4263
157 2 4.11056 20.308 24.6113
158 2 4.21236 20.2923 28.5891
159 2 3.97642 20.5149 32.7508
160 2 3.96706 20.1462 36.7951
161 2 3.87552 24.5756 0.452588
162 2 3.95199 24.6715 4.12927
163 2 4.14446 24.3488 7.8341
164 2 4.14275 24.1814 11.9299
165 2 4.00509 24.1039 16.3068
166 2 4.29568 24.1333 20.4298
167 2 3.97287 24.1902 24.6244
168 2 4.03953 24.0626 28.3336
169 2 3.95129 24.2172 32.4401
170 2 4.21356 24.5285 36.4908
171 2 4.24435 28.3599 0.0214724
172 2 4.09172 28.5447 4.18799
173 2 4.28078 28.6124 8.05979
174 2 4.07005 28.3199 12.1662
175 2 4.04913 28.074 16.3067
176 2 4.44823 28.3937 20.6303
177 2 4.21301 28.263 24.3999
178 2 3.97512 28.4009 28.1904
179 2 4.08646 28.3914 32.5217
180 2 4.05344 28.8663 36.7523
181 2 3.99723 32.3835 40.2912
182 2 4.0992 32.1588 4.3826
183 2 4.29583 32.3975 8.12405
184 2 4.11869 32.6729 12.1933
185 2 4.06196 32.2422 16.4779
186 2 4.31228 32.198 20.2664
187 2 4.36064 32.4289 24.3751
188 2 4.02693 32.3838 28.3336
189 2 4.28709 32.53 32.6168
190 2 4.17946 32.431 36.6107
191 2 4.22479 36.4368 -0.00502799
192 2 4.33309 36.3632 4.22355
193 2 4.49129 36.5747 8.09851
194 2 4.2934 36.5109 12.1796
195 2 4.10762 36.2995 16.3413
196 2 4.0091 36.8063 20.483
197 2 3.98406 36.2559 24.3936
198 2 3.89687 36.2775 28.4305
199 2 4.00239 36.3472 32.6025
200 2 4.02652 36.2422 36.7466
201 2 7.91899 0.1772 0.339816
202 2 8.08211 0.286939 3.87417
203 2 8.1604 0.202229 8.44518
204 2 7.96881 0.223707 12.2487
205 2 8.36042 0.34511 16.6368
206 2 8.31589 0.147826 20.5433
207 2 8.23544 -0.00119383 24.4129
208 2 8.25844 40.1883 28.4943
209 2 8.02848 40.2882 32.3725
210 2 8.21179 -0.0174288 36.6442
211 2 8.30437 3.99461 0.357368
212 2 8.35472 4.26747 3.94388
213 2 8.2205 4.23497 8.09111
214 2 8.02923 4.28939 12.0934
215 2 8.22227 4.2898 16.5602
216 2 8.38384 4.34499 20.3547
217 2 8.27819 4.37139 24.524
218 2 8.32348 4.61312 28.1294
219 2 8.13587 4.13588 32.4359
220 2 8.20082 4.0578 36.8185
221 2 8.32838 8.5606 0.139104
222 2 8.49527 8.55108 4.00131
223 2 8.39956 8.47501 8.29559
224 2 8.38848 8.20367 12.4564
225 2 8.35061 7.99999 16.5294
226 2 8.55482 8.48132 20.4537
227 2 8.10458 8.17082 24.6887
228 2 8.00585 8.0256 28.337
229 2 8.06272 8.37636 32.448
230 2 8.19441 8.26475 36.9128
231 2 8.19181 12.4599 0.07396
232 2 8.44439 12.3636 4.17135
233 2 8.28509 12.4729 7.97118
234 2 8.26085 12.1202 12.0933
235 2 8.48003 12.0919 16.3467
236 2 8.24607 12.5059 20.6771
237 2 8.18379 12.5181 24.5629
238 2 8.0293 12.5849 28.5471
239 2 8.08648 12.4243 32.5744
240 2 7.99507 12.7281 36.5911
241 2 8.25326 16.6458 40.3882
242 2 8.13602 16.5328 4.11664
243 2 8.19373 16.7214 7.74489
244 2 8.10593 16.197 11.9292
245 2 8.32505 16.5012 16.4367
246 2 8.23461 16.5068 20.6497
247 2 8.33012 16.6926 24.505
248 2 7.94785 16.72 28.7842
249 2 8.38698 16.4955 32.4461
250 2 8.36338 16.6751 36.4858
251 2 8.16651 20.3545 40.4245
252 2 7.99402 20.584 4.05172
253 2 7.88608 20.4524 7.65054
254 2 7.95389 20.2137 12.3098
255 2 8.41839 20.2856 16.3052
256 2 8.33422 20.1478 20.4453
257 2 8.42914 20.4963 24.559
258 2 8.32742 20.2115 28.5819
259 2 8.11919 20.5163 32.7319
260 2 8.33083 20.1865 36.8579
261 2 8.27766 24.308 -0.013542
262 2 8.3373 24.5124 3.9097
263 2 8.25594 24.43 7.76961
264 2 8.27492 24.4577 12.2408
265 2 8.22615 24.1982 16.6044
266 2 8.20439 24.1066 20.7114
267 2 8.4075 24.297 24.5382
268 2 8.28935 24.3346 28.4628
269 2 8.45355 24.2671 32.4515
270 2 8.27456 24.5369 36.4817
271 2 8.32756 28.2638 0.0753092
272 2 8.27464 28.3775 4.11155
273 2 8.43082 28.4133 8.11012
274 2 8.28362 28.5297 12.0077
275 2 8.18537 28.5097 16.3258
276 2 8.1523 28.4679 20.4145
277 2 8.26707 28.1152 24.2945
278 2 8.16267 28.3836 28.5053
279 2 8.24397 28.4995 32.8706
280 2 8.16589 28.5631 36.6415
281 2 8.48442 32.5918 0.164195
282 2 8.45722 32.3904 4.1662
283 2 8.31462 32.5528 8.04856
284 2 8.52696 32.504 11.9891
285 2 8.08812 32.5797 16.3842
286 2 8.11784 32.4524 20.5624
287 2 8.22126 32.6949 24.3468
288 2 8.42739 32.507 28.5844
289 2 8.15266 32.4299 32.7772
290 2 7.98231 32.5488 36.3031
291 2 8.23816 36.3136 0.204133
292 2 8.35196 36.5789 4.35811
293 2 8.29267 36.7588 8.05903
294 2 8.23472 36.506 12.3108
295 2 8.24741 36.6566 16.4889
296 2 8.49745 36.5185 20.2955
297 2 8.26134 36.3347 24.4238
298 2 8.29259 36.5387 28.3307
299 2 8.03522 36.6345 32.5443
300 2 8.02009 36.2577 36.6316
301 2 12.675 0.0455967 0.0248346
302 2 12.588 0.0538812 3.66362
303 2 12.4155 0.151396 8.16012
304 2 12.0953 0.0869077 12.3961
305 2 12.4684 0.274255 16.5453
306 2 12.5236 40.3364 20.7426
307 2 12.5568 0.117122 24.3487
308 2 12.3045 0.134378 28.5129
309 2 12.3981 0.113159 32.3801
310 2 12.3806 0.227918 36.779
311 2 12.2749 4.25835 0.355923
312 2 12.1326 4.32327 3.72399
313 2 12.3989 4.22022 7.89509
314 2 12.1867 4.35498 12.194
315 2 12.2167 3.83591 16.3372
316 2 12.3279 4.22747 20.4483
317 2 12.224 4.21622 24.5088
318 2 12.4723 4.27803 28.5123
319 2 12.0538 3.9719 32.3689
320 2 12.0337 4.28335 36.9091
321 2 12.2067 8.22849 0.0681317
322 2 12.1624 8.33124 4.14163
323 2 12.3823 8.32946 8.51971
324 2 12.187 8.44736 12.37
325 2 11.9008 8.60524 16.3142
326 2 12.1641 8.50772 20.6388
327 2 12.1876 8.38057 24.5671
328 2 11.7543 8.23732 28.6256
329 2 12.2147 8.20157 32.5719
330 2 12.2473 8.35297 36.7943
331 2 12.3409 12.5668 0.104859
332 2 12.656 12.5667 4.00121
333 2 12.3595 12.405 8.30632
334 2 12.214 12.623 12.0083
335 2 12.1894 12.5486 16.267
336 2 12.1413 12.4244 20.5546
337 2 12.3057 12.3849 24.7698
338 2 12.409 12.4526 28.516
339 2 12.3257 12.336 32.5437
340 2 12.2088 12.4788 36.5403
341 2 12.6603 16.2383 0.0858895
342 2 12.4507 16.2433 3.86352
343 2 12.3376 16.4346 8.09799
344 2 11.891 16.6085 12.2238
345 2 12.3548 16.7152 15.9386
346 2 12.4399 16.47 20.2067
347 2 12.475 16.6158 24.567
348 2 12.5917 16.7065 28.4574
349 2 12.4856 16.5254 32.3452
350 2 12.4037 16.4534 37.0219
351 2 12.5525 20.2459 -0.0423717
352 2 12.6004 20.3246 4.22588
353 2 12.3691 20.3109 7.83422
354 2 11.8555 20.4714 12.4486
355 2 12.3996 20.589 16.0772
356 2 12.3167 20.5711 20.1573
357 2 12.4522 20.4422 24.6229
358 2 12.5171 20.3815 28.4479
359 2 12.4437 20.6344 32.4418
360 2 12.3191 20.1903 36.8747
361 2 12.4216 24.2335 0.183891
362 2 12.3637 24.4299 4.36941
363 2 12.2673 24.2303 8.06253
364 2 11.859 24.228 12.1737
365 2 12.3367 24.4904 16.0833
366 2 12.5101 24.4146 20.2669
367 2 12.2176 24.3544 24.1579
368 2 12.2363 24.5733 28.4315
369 2 12.2643 24.6292 32.6978
370 2 12.4018 24.3751 36.8768
371 2 12.5393 28.8038 0.15912
372 2 12.6079 28.5458 4.0079
373 2 12.1428 28.4611 7.94102
374 2 12.3814 28.4221 12.2209
375 2 12.4455 28.5957 16.1624
376 2 12.3686 28.2684 20.1066
377 2 12.017 28.5739 24.2812
378 2 11.948 28.5485 28.4839
379 2 12.3825 28.7453 32.5059
380 2 12.1836 28.8303 36.7397
381 2 12.4001 32.4923 -0.0795221
382 2 12.3516 32.3004 4.31388
383 2 12.3907 32.5717 7.83871
384 2 12.3396 32.5294 12.1885
385 2 12.4892 32.4891 16.2108
386 2 12.3488 32.5841 20.0896
387 2 12.1392 32.5744 24.2635
388 2 12.1341 32.3526 28.6016
389 2 12.5714 32.5023 32.656
390 2 12.2299 32.7371 36.4632
391 2 12.5233 36.3188 -0.02516
392 2 12.4953 36.5598 3.97233
393 2 12.351 36.9578 8.10122
394 2 12.1867 36.8063 12.3742
395 2 12.4857 36.8926 16.4332
396 2 12.6128 36.4187 20.1398
397 2 12.4905 36.3105 24.2047
398 2 12.1036 36.4734 28.5572
399 2 12.3999 36.3858 32.5232
400 2 12.3473 36.4601 36.4648
401 2 16.3502 0.143747 -0.0130982
402 2 16.4249 0.149445 4.1121
403 2 16.3261 0.127156 8.30803
404 2 16.5225 0.216185 12.5088
405 2 16.158 0.177231 16.4881
406 2 16.2321 0.00944569 20.6323
407 2 16.268 0.352773 24.4412
408 2 16.3814 0.0885773 28.446
409 2 16.4868 0.0449707 32.7776
410 2 16.3998 0.148652 36.6025
411 2 16.3411 4.46009 40.4245
412 2 16.2778 4.59162 4.05158
413 2 16.3212 4.33193 8.30756
414 2 16.1486 4.52234 12.4546
415 2 16.0483 4.1356 16.496
416 2 16.2815 4.34457 20.5662
417 2 16.292 4.11855 24.6463
418 2 16.4455 4.3969 28.2086
419 2 16.151 3.94618 32.724
420 2 16.4016 4.39946 36.5449
421 2 16.3906 8.37638 40.3444
422 2 16.429 8.42589 4.0879
423 2 16.4039 8.45532 8.44686
424 2 16.1759 8.30905 12.4816
425 2 16.2442 8.51494 16.3239
426 2 15.9762 8.10951 20.6006
427 2 15.9989 8.13436 24.5097
428 2 16.4737 8.11034 28.3806
429 2 16.1509 8.12967 32.556
430 2 16.3978 8.51389 36.6173
431 2 16.6147 12.2704 -0.0574735
432 2 16.3514 12.5777 4.08719
433 2 16.2869 12.4349 8.41536
434 2 16.2405 12.6039 12.2691
435 2 16.2854 12.5072 16.478
436 2 16.0904 12.6384 20.4955
437 2 16.0513 12.2702 24.5831
438 2 16.5696 12.3015 28.5512
439 2 16.2692 12.5355 32.2016
440 2 16.2903 12.4626 36.2932
441 2 16.3609 16.4104 0.0105471
442 2 16.2136 16.2209 4.02902
443 2 16.3936 16.6221 8.32075
444 2 16.6035 16.3275 12.0916
445 2 16.0212 16.4763 16.2782
446 2 16.1086 16.2946 20.5747
447 2 16.0526 16.6322 24.7205
448 2 16.3753 16.4087 28.7387
449 2 16.6143 16.646 32.4817
450 2 16.5181 16.3729 36.433
451 2 16.2725 20.1475 0.0024979
452 2 16.2803 20.1545 4.17056
453 2 16.2052 20.3609 8.16509
454 2 16.5431 20.3574 12.0235
455 2 16.5067 20.1714 16.3132
456 2 16.4836 20.2649 20.0954
457 2 16.5137 20.3722 24.687
458 2 16.2301 20.2024 28.6596
459 2 16.4495 20.637 32.4218
460 2 16.7446 20.5279 36.3599
461 2 16.4997 24.2789 0.190002
462 2 16.6133 24.0568 3.99517
463 2 16.4186 24.4807 7.99299
464 2 16.3268 24.0805 12.2242
465 2 16.3812 24.6043 16.0761
466 2 16.5367 24.4336 20.1506
467 2 16.3435 24.5947 24.4851
468 2 16.4261 24.6005 28.4126
469 2 16.5243 24.624 32.2637
470 2 16.2577 24.2648 36.5548
471 2 16.3953 28.8207 0.10415
472 2 16.6366 28.3482 4.49124
473 2 16.576 28.3067 8.18806
474 2 16.1833 28.5617 12.2615
475 2 16.3837 28.4455 16.1036
476 2 16.4762 28.2623 20.2942
477 2 16.5282 28.3776 24.1811
478 2 16.3366 28.1006 28.4856
479 2 16.3287 28.5062 32.2105
480 2 16.6174 28.3511 36.4388
481 2 16.0665 32.5719 -0.0290842
482 2 16.5268 32.7521 4.17679
483 2 16.5527 32.7774 7.97069
484 2 16.1952 32.5572 11.884
485 2 16.1871 32.198 16.53
486 2 16.4693 32.3998 20.3896
487 2 16.2582 32.5409 24.3996
488 2 16.2979 32.4712 28.1929
489 2 16.3219 32.4847 32.4954
490 2 16.6579 32.5349 36.2195
491 2 16.5728 36.7089 0.0943692
492 2 16.3568 36.6067 4.32019
493 2 16.0667 36.7863 8.17715
494 2 16.3415 36.7178 11.9914
495 2 16.2088 36.7129 16.7526
496 2 16.3937 36.3694 20.5744
497 2 16.3926 36.404 24.2305
498 2 16.2742 36.4015 28.68
499 2 16.5376 36.5203 32.5128
500 2 16.5652 36.6535 36.5854
501 2 20.5713 0.273125 0.0878807
502 2 20.6996 0.441956 4.12496
503 2 20.2516 0.489189 8.28755
504 2 20.1252 0.269795 12.3699
505 2 20.1971 40.3079 16.6037
506 2 20.1408 0.136455 20.4402
507 2 20.4704 0.120395 24.3787
508 2 20.4437 0.309541 28.5775
509 2 20.6101 0.45435 32.6831
510 2 20.6271 0.233599 36.6541
511 2 20.6423 4.1444 40.3713
512 2 20.5405 4.30611 4.33583
513 2 20.1931 4.24638 8.38117
514 2 19.9885 4.37041 12.4402
515 2 20.4004 4.18642 16.5872
516 2 20.3605 4.3128 20.6186
517 2 20.5963 3.97664 24.4032
518 2 20.5324 4.14618 28.6571
519 2 20.7407 4.35739 32.4271
520 2 20.5161 4.2847 36.6528
521 2 20.5837 8.17526 0.113625
522 2 20.6176 8.25686 3.97446
523 2 20.0797 8.46133 8.41453
524 2 20.2904 8.10203 12.5858
525 2 20.609 8.30377 16.5449
526 2 20.47 8.43162 20.4228
527 2 20.3216 8.59935 24.4598
528 2 20.5017 8.21247 28.7812
529 2 20.5297 8.34599 32.7048
530 2 20.3616 8.32205 36.475
531 2 20.6566 12.5994 -0.025606
532 2 20.6293 12.4259 4.13841
533 2 20.31 12.6295 8.1972
534 2 20.2661 12.4359 12.443
535 2 20.2518 12.1195 16.3011
536 2 19.9348 12.4025 20.3039
537 2 20.3154 12.2202 24.2223
538 2 20.3417 12.3984 28.6475
539 2 20.5135 12.43 32.4797
540 2 20.3207 12.5405 36.4211
541 2 20.4024 16.2371 -0.0125021
542 2 20.4287 16.1552 3.99559
543 2 20.4429 16.5272 8.47952
544 2 20.3424 16.3389 12.3219
545 2 20.1943 16.4326 16.4319
546 2 20.1852 16.5086 20.7811
547 2 19.9822 16.3137 24.4011
548 2 20.5316 16.2731 28.4971
549 2 20.6984 16.5799 32.5227
550 2 20.3761 16.5621 36.3425
551 2 20.1819 20.2374 0.004928
552 2 20.096 20.4927 4.37696
553 2 20.5702 20.5841 8.09106
554 2 20.2602 20.5604 12.5407
555 2 20.4546 20.2461 16.6431
556 2 20.3631 20.3992 20.1738
557 2 20.1911 20.3382 24.2959
558 2 20.8206 20.1556 28.465
559 2 20.4976 20.6229 32.2782
560 2 20.5523 20.4005 36.2908
561 2 20.2141 24.1778 0.260557
562 2 20.2682 24.6795 4.28321
563 2 20.5596 24.4485 8.14892
564 2 20.3927 24.3238 12.449
565 2 20.5427 24.652 16.2589
566 2 20.3831 24.4567 20.3403
567 2 20.3312 24.3764 24.1194
568 2 20.5112 24.2613 28.6613
569 2 20.5538 24.1766 32.5446
570 2 20.2732 24.389 36.75
571 2 20.3677 28.5523 0.290082
572 2 20.4541 28.4242 4.20428
573 2 20.3554 28.6106 8.30725
574 2 20.3378 28.7094 12.4054
575 2 20.4372 28.6681 16.2669
576 2 20.4884 28.2699 20.1718
577 2 20.4751 28.2975 24.0936
578 2 20.4758 28.8209 28.2642
579 2 20.4686 28.5775 32.0861
580 2 20.3414 28.6025 36.5176
581 2 20.6537 32.3439 0.243846
582 2 20.338 32.5054 4.30984
583 2 20.4218 32.7306 8.25499
584 2 20.065 32.6176 12.0839
585 2 20.3134 32.2277 16.3945
586 2 20.3967 32.4143 20.5563
587 2 20.5821 32.2064 24.4975
588 2 20.6061 32.5221 28.1746
589 2 20.5064 32.5232 32.6017
590 2 20.3911 32.3792 36.4943
591 2 20.5663 36.4994 0.325591
592 2 20.4244 36.7704 4.36306
593 2 20.3866 36.7779 8.31944
594 2 20.1919 36.2839 12.1704
595 2 20.162 36.3319 16.5847
596 2 20.2635 36.1758 20.3517
597 2 20.2347 36.2828 24.388
598 2 20.5492 36.3436 28.5505
599 2 20.564 36.5905 32.5602
600 2 20.5188 36.7954 36.807
601 2 24.7792 40.3532 40.2733
602 2 24.2256 0.110219 4.33738
603 2 24.2828 40.2911 8.4013
604 2 24.5151 0.261066 12.4282
605 2 24.343 0.184586 16.7077
606 2 24.5487 0.0702409 20.512
607 2 24.6473 0.114065 24.4578
608 2 24.7578 -0.00559351 28.3368
609 2 24.5028 0.367976 32.6021
610 2 24.7747 0.302088 36.3607
611 2 24.5149 4.22353 0.198763
612 2 24.3504 4.50276 4.46362
613 2 24.3081 4.45965 8.27103
614 2 24.5563 4.29399 12.5315
615 2 24.4227 4.29821 16.6135
616 2 24.4402 4.26975 20.3581
617 2 24.5835 3.95907 24.3032
618 2 24.6393 4.15849 28.612
619 2 24.7694 3.76238 32.5206
620 2 24.7027 4.04135 36.2407
621 2 24.3938 8.36888 0.495129
622 2 24.5384 8.33896 4.41928
623 2 24.4542 8.3572 8.16837
624 2 24.3886 8.07452 12.5451
625 2 24.6118 8.03131 16.3734
626 2 24.6 8.20249 20.3691
627 2 24.5548 8.41682 24.3431
628 2 24.8114 8.21154 28.5386
629 2 24.8326 8.4439 32.6756
630 2 24.934 8.20508 36.3043
631 2 24.5974 12.1762 0.282013
632 2 24.6198 12.2038 4.16341
633 2 24.444 12.33 8.26673
634 2 24.2635 12.1453 12.3612
635 2 24.4989 12.2586 16.2468
636 2 24.359 12.3922 20.3835
637 2 24.6109 12.3853 24.5458
638 2 24.8098 12.4372 28.6163
639 2 24.6276 11.8787 32.5437
640 2 24.8115 12.4103 36.4974
641 2 24.7574 16.3176 0.122761
642 2 24.5016 16.7242 3.98594
643 2 24.4117 16.3625 8.47862
644 2 24.4214 16.5591 12.1695
645 2 24.4501 16.4367 16.3169
646 2 24.6054 16.2247 20.5453
647 2 24.5397 16.1269 24.6001
648 2 24.5291 16.051 28.8971
649 2 24.5385 16.0851 32.5895
650 2 24.5304 16.1448 36.7424
651 2 24.287 20.4961 0.298569
652 2 24.0801 20.2684 4.64453
653 2 24.4937 20.5371 8.08071
654 2 24.4697 20.4955 12.1961
655 2 24.8695 20.2939 16.2224
656 2 24.6789 20.3984 20.1706
657 2 24.3074 20.4527 24.6817
658 2 24.5668 20.4266 28.3994
659 2 24.2891 20.3322 32.5199
660 2 24.1402 20.5082 36.7468
661 2 24.3672 24.3877 0.314513
662 2 24.4859 24.6214 4.35955
663 2 24.5461 23.9729 7.96027
664 2 24.4623 24.3546 12.4275
665 2 24.6333 24.4256 16.3686
666 2 24.7192 24.1797 20.1473
667 2 24.5865 24.2176 24.0611
668 2 24.2637 24.1414 28.3735
669 2 24.2838 24.1984 32.4758
670 2 24.3841 24.4431 36.8181
671 2 24.1793 28.533 0.259732
672 2 24.1922 28.4488 4.33473
673 2 24.2613 28.512 8.63998
674 2 24.2529 28.331 12.4129
675 2 24.4458 28.2081 16.3459
676 2 24.5746 28.442 20.4821
677 2 24.3846 28.4339 24.2169
678 2 24.4274 28.6517 28.1024
679 2 24.1758 28.5939 32.4886
680 2 24.3792 28.6735 36.7229
681 2 24.431 32.6415 0.42933
682 2 24.1342 32.7579 4.40506
683 2 24.4521 32.6011 8.64535
684 2 24.6642 32.3479 12.2855
685 2 24.4573 32.275 16.6283
686 2 24.5519 32.391 20.3847
687 2 24.6377 32.6079 24.3625
688 2 24.7527 32.3854 28.3083
689 2 24.7006 32.5197 32.6427
690 2 24.708 32.3962 36.7467
691 2 24.2237 36.443 0.474427
692 2 24.4293 36.5355 4.46844
693 2 24.4952 36.3429 8.2927
694 2 24.797 36.3559 12.2458
695 2 24.3268 36.4253 16.3806
696 2 24.5581 36.2481 20.5445
697 2 24.6915 36.3242 24.4017
698 2 24.859 36.4662 28.3727
699 2 24.8019 36.5381 32.5342
700 2 24.6135 36.5387 36.8416
701 2 28.3561 0.107889 0.275575
702 2 28.1521 0.0327797 4.24218
703 2 28.5827 0.0642905 8.32479
704 2 28.5261 0.0832501 12.5451
705 2 28.5961 0.215488 16.0875
706 2 28.4146 0.161113 20.6461
707 2 28.7696 40.3534 24.4079
708 2 28.8159 0.219163 28.2966
709 2 28.7715 0.0353656 32.3712
710 2 28.729 0.280907 36.6438
711 2 28.3349 4.11967 0.364991
712 2 28.3072 4.03667 4.11616
713 2 28.6017 4.23571 8.49176
714 2 28.4683 4.22087 12.4679
715 2 28.7383 4.25265 16.3464
716 2 28.6723 4.34337 20.5262
717 2 28.8074 4.0111 24.2062
718 2 28.9256 3.98877 28.3972
719 2 28.4605 4.4545 32.2369
720 2 28.7668 4.28159 36.4105
721 2 28.6046 8.56151 0.385532
722 2 28.7962 8.57341 3.97626
723 2 28.1373 8.30841 8.4623
724 2 28.5057 7.87178 12.5523
725 2 28.7192 7.95558 16.3957
726 2 28.6574 8.47207 20.6241
727 2 28.5017 8.55672 24.5566
728 2 28.6116 8.25831 28.7435
729 2 28.6244 8.38248 32.8513
730 2 28.4573 8.21969 36.4545
731 2 28.7959 12.1479 0.342663
732 2 28.7575 12.3002 4.21405
733 2 28.474 12.4356 8.28214
734 2 28.5886 12.0658 12.3785
735 2 28.5364 12.153 16.2829
736 2 28.6056 12.3411 20.264
737 2 28.5759 12.6103 24.4468
738 2 28.5324 12.3525 28.8516
739 2 28.4687 12.0634 32.9409
740 2 28.4485 11.9221 36.9233
741 2 28.5426 16.3418 0.299619
742 2 28.6034 16.6296 4.02546
743 2 28.3052 16.44 8.50203
744 2 28.4598 16.654 12.3641
745 2 28.5296 16.5143 16.0866
746 2 28.5207 16.6499 20.3698
747 2 28.5692 16.0629 24.4618
748 2 28.4737 16.0135 28.5858
749 2 28.3796 16.164 32.7004
750 2 28.3408 16.2266 36.697
751 2 28.517 20.5532 0.303661
752 2 28.2824 20.3506 4.3287
753 2 28.3007 20.3662 8.22445
754 2 28.3342 20.4436 12.5437
755 2 28.6117 20.3817 16.1555
756 2 28.631 20.1447 20.3493
757 2 28.3661 20.273 24.5446
758 2 28.355 20.3328 28.5549
759 2 28.1467 20.4269 32.6321
760 2 28.4556 20.2493 36.6042
761 2 28.2815 24.3774 0.0263449
762 2 28.4064 24.3975 4.55524
763 2 28.3684 24.4211 8.33979
764 2 28.3317 24.2609 12.1623
765 2 28.5359 24.0865 16.1365
766 2 28.456 24.131 20.2167
767 2 28.2806 23.9715 24.0366
768 2 28.3904 24.3036 28.9449
769 2 28.2142 24.1065 32.4298
770 2 28.4812 24.4861 36.7434
771 2 28.5663 28.5382 0.104188
772 2 28.3213 28.5261 4.55143
773 2 28.3576 28.2951 8.57072
774 2 28.515 28.1043 12.1248
775 2 28.3984 28.3177 16.209
776 2 28.4297 28.62 20.345
777 2 28.2524 28.5333 24.3322
778 2 28.4852 28.3677 28.7473
779 2 28.2232 28.2863 32.8258
780 2 28.4033 28.2004 36.8314
781 2 28.2818 32.4677 -0.0426794
782 2 28.4972 32.4238 4.38053
783 2 28.575 32.3974 8.46982
784 2 28.7363 32.3512 12.5658
785 2 28.8088 32.5135 16.2522
786 2 28.6693 32.6074 19.9347
787 2 28.342 32.2761 24.3236
788 2 28.5087 32.4233 28.3532
789 2 28.4648 32.4085 32.5734
790 2 28.3695 32.599 36.6621
791 2 28.2422 36.5782 -0.071658
792 2 28.0162 36.5794 4.30513
793 2 28.4927 36.3213 8.67732
794 2 28.7391 36.54 12.5461
795 2 28.6773 36.4036 16.3095
796 2 28.5649 36.495 20.1574
797 2 28.5819 36.4288 24.287
798 2 28.6158 36.1273 28.6033
799 2 28.744 36.3969 32.3606
800 2 28.5678 36.5232 36.7584
801 2 32.5625 0.122422 0.25671
802 2 32.5423 0.441105 4.21815
803 2 32.3424 0.439929 8.08049
804 2 32.8057 0.240469 12.5766
805 2 32.9473 0.381455 16.2423
806 2 32.8345 0.365134 20.3502
807 2 32.5863 0.0787901 24.2961
808 2 32.5951 0.254011 28.333
809 2 32.3516 0.085162 32.1899
810 2 32.6468 0.0082253 36.8441
811 2 32.5757 4.23805 0.362947
812 2 32.7026 4.19852 4.40719
813 2 32.5429 4.13401 8.23906
814 2 32.8801 4.05507 12.3561
815 2 32.8745 4.10116 16.4494
816 2 32.579 4.45408 20.0873
817 2 32.6077 4.39458 24.1081
818 2 32.5356 4.27413 28.4605
819 2 32.6563 4.4512 32.5815
820 2 32.5429 3.7958 36.5852
821 2 32.4967 8.13228 0.435155
822 2 32.5825 8.14678 4.09956
823 2 32.5636 8.01848 8.12945
824 2 32.792 8.50124 12.2983
825 2 32.8059 7.96654 16.4917
826 2 32.8354 8.39738 20.2269
827 2 32.6993 8.3087 24.3774
828 2 32.4825 8.12052 28.6086
829 2 32.8505 8.24582 32.8685
830 2 32.8415 8.01936 36.6766
831 2 32.7693 12.0316 0.138961
832 2 32.4047 11.916 4.12132
833 2 32.5623 12.2639 8.07977
834 2 32.4139 12.1982 12.3966
835 2 32.541 12.3486 16.7229
836 2 32.8259 12.3517 20.3218
837 2 32.5014 12.6369 24.305
838 2 32.4929 12.2366 28.6531
839 2 32.4763 12.3895 32.6843
840 2 32.1999 12.1996 36.935
841 2 32.6412 16.3679 0.00284022
842 2 32.5933 16.4874 3.97618
843 2 32.4826 16.3383 8.52283
844 2 32.3579 16.0548 12.1884
845 2 32.5718 16.1978 16.5086
846 2 32.7637 16.1894 20.5839
847 2 32.6241 16.337 24.5903
848 2 32.4568 16.2242 28.6834
849 2 32.5534 16.262 32.6884
850 2 32.4809 16.2831 36.4638
851 2 32.9963 20.1448 0.0244484
852 2 32.9091 20.4009 4.21347
853 2 32.8038 20.1945 8.38792
854 2 32.8955 20.6245 12.2895
855 2 32.7101 20.2119 16.3284
856 2 32.5955 19.9902 20.5306
857 2 32.6266 20.0678 24.442
858 2 32.2518 20.2644 28.6164
859 2 32.2461 20.0755 32.462
860 2 32.5075 20.3103 36.7406
861 2 32.4999 24.7152 0.255069
862 2 32.4933 24.6683 4.44083
863 2 32.7308 24.4693 8.26876
864 2 32.8284 24.2181 12.1372
865 2 32.6032 24.1075 16.2408
866 2 32.3504 24.0919 20.3413
867 2 32.3556 24.2394 24.3216
868 2 32.551 24.3277 28.7333
869 2 32.4237 24.5659 32.5467
870 2 32.4608 24.4772 36.7695
871 2 32.7221 28.3839 0.275377
872 2 32.6058 28.3443 4.40097
873 2 32.6094 28.2642 8.32523
874 2 32.4603 28.0385 12.3678
875 2 32.6609 28.2848 16.4163
876 2 32.8279 28.4466 20.3069
877 2 32.6216 28.4139 24.4413
878 2 32.756 28.2287 28.8531
879 2 32.661 28.2356 32.6875
880 2 32.3868 28.2569 36.8028
881 2 32.3253 32.1566 0.142879
882 2 32.4223 32.54 4.26759
883 2 32.5487 32.4602 8.57668
884 2 32.6544 32.5151 12.545
885 2 32.5927 32.5391 16.1602
886 2 32.8282 32.276 20.3369
887 2 32.7582 32.1978 24.2457
888 2 32.4926 32.394 28.5442
889 2 32.5173 32.3927 32.8029
890 2 32.5131 32.5173 36.7422
891 2 32.4994 36.3266 0.0865241
892 2 32.3245 36.1819 4.15308
893 2 32.386 36.2664 8.3126
894 2 32.859 36.6095 11.9711
895 2 32.7277 36.5166 16.3002
896 2 32.81 36.6545 20.0003
897 2 32.773 36.4455 24.4454
898 2 32.6968 36.5468 28.207
899 2 32.304 36.5543 32.6413
900 2 32.6256 36.6099 36.9295
901 2 36.6181 0.0297614 0.33635
902 2 36.7486 0.137225 4.43953
903 2 36.8012 0.0434822 8.39144
904 2 36.7121 0.229066 12.089
905 2 36.8445 0.110374 16.5211
906 2 36.8924 0.068179 20.3893
907 2 36.4404 0.348181 24.3494
908 2 36.4602 0.0273402 28.4802
909 2 36.6639 0.210722 32.6591
910 2 36.8403 0.49114 36.6529
911 2 36.5873 4.1903 0.360166
912 2 36.6631 4.50116 4.14196
913 2 36.7965 4.19881 7.95405
914 2 36.9612 4.21009 12.0411
915 2 36.8945 4.58181 16.5623
916 2 36.6661 4.42318 20.4267
917 2 36.5413 4.44379 24.7158
918 2 36.7121 4.15885 28.3648
919 2 36.5261 4.18459 32.568
920 2 36.6968 4.44044 36.6832
921 2 36.6487 7.98385 0.268678
922 2 36.4201 8.09167 4.07877
923 2 36.6846 8.22466 8.11681
924 2 36.5661 8.32047 12.1515
925 2 36.9113 8.16132 16.1494
926 2 36.8264 8.24242 20.1501
927 2 36.825 8.247 24.6063
928 2 36.3729 8.28388 28.5691
929 2 36.6121 8.20505 32.6662
930 2 36.5616 8.24755 36.7537
931 2 36.5843 12.3447 0.179427
932 2 36.6293 12.2048 3.96594
933 2 36.5522 12.4243 8.33496
934 2 36.7098 12.2275 12.1577
935 2 36.788 12.1905 16.0854
936 2 36.8137 12.4238 20.1513
937 2 36.6933 12.6798 24.3132
938 2 36.5067 12.514 28.3534
939 2 36.5212 12.2485 32.7547
940 2 36.9382 12.329 36.4845
941 2 36.6127 16.3459 40.3859
942 2 36.7829 16.4464 4.02912
943 2 36.4043 16.1193 8.23258
944 2 36.8517 15.9285 12.269
945 2 36.3804 16.1329 16.308
946 2 36.654 16.3166 20.369
947 2 36.4002 16.3958 24.6742
948 2 36.696 16.3403 28.4545
949 2 36.436 16.4724 32.8044
950 2 36.7381 16.4978 36.6484
951 2 36.7095 20.1987 0.222454
952 2 36.8423 20.4705 4.23557
953 2 36.6914 20.4062 8.41275
954 2 36.6116 20.2033 12.0345
955 2 36.54 20.1629 16.2303
956 2 36.3036 20.0031 20.1607
957 2 36.8899 20.3229 24.3923
958 2 36.3484 20.1685 28.4601
959 2 36.599 20.3512 32.6443
960 2 36.8717 20.363 37.0193
961 2 36.6695 24.6447 0.0635191
962 2 36.9164 24.3902 4.47464
963 2 37.0029 24.4116 8.43379
964 2 36.9936 24.3288 12.1735
965 2 36.7919 24.367 16.0698
966 2 36.5845 24.381 20.019
967 2 36.6628 24.2569 24.5257
968 2 36.6824 24.2415 28.3685
969 2 36.2962 24.2526 32.5752
970 2 36.7171 24.3871 36.8337
971 2 36.8763 28.4568 0.102996
972 2 36.7225 28.3375 4.47919
973 2 36.8117 28.4036 8.40546
974 2 36.8166 28.2241 12.2685
975 2 36.6113 28.2923 16.3036
976 2 36.6718 28.3055 20.2584
977 2 36.4458 28.4869 24.6013
978 2 36.4812 28.4699 28.2955
979 2 36.6429 28.1574 32.5376
980 2 36.8816 28.2852 36.6902
981 2 36.6048 32.2073 0.232199
982 2 36.4826 32.4513 4.3783
983 2 36.9493 32.5125 8.6445
984 2 36.8477 32.4146 12.2074
985 2 36.7483 32.5848 16.283
986 2 36.6564 32.4579 20.202
987 2 36.319 32.4437 24.6056
988 2 36.2386 32.3643 28.4271
989 2 36.4355 32.2187 32.3772