ITEM: TIMESTEP
0
ITEM: NUMBER OF ATOMS
7200
ITEM: BOX BOUNDS xy xz yz pp pp pp
0.0000000000000000e+00 3.5429553985600002e+01 0.0000000000000000e+00
0.0000000000000000e+00 5.8855251312299998e+01 0.0000000000000000e+00
0.0000000000000000e+00 4.9537563323999997e+01 0.0000000000000000e+00
ITEM: ATOMS id type x y z
1 2 34.4053 54.9173 45.5906
2 2 22.1051 48.9992 8.44685
3 2 22.1105 49.001 16.691
4 2 22.1129 49.0061 24.9554
5 2 22.1069 49.001 33.2113
6 2 22.1092 49.0046 41.4542
7 2 28.0249 1.91118 0.185478
8 2 28.0171 1.91424 8.44057
9 2 28.0077 1.91701 16.6968
10 2 22.1109 49.0011 0.181201
11 2 28.0194 1.91268 24.9568
12 2 28.0189 1.91608 41.4635
13 2 28.0151 13.69 0.190789
14 2 28.0131 13.6893 8.43671
15 2 28.0164 13.6888 16.7022
16 2 28.0087 13.6867 24.9508
17 2 28.0122 13.6896 33.2147
18 2 28.0191 13.6872 41.4578
19 2 28.0105 25.4615 0.182811
20 2 28.0083 1.92152 33.2112
21 2 22.1159 37.2285 41.4656
22 2 22.1165 37.2295 33.2105
23 2 22.1128 37.2292 24.9507
24 2 22.1134 1.91461 16.6983
25 2 22.1099 1.91582 24.9576
26 2 22.1004 1.9159 33.2092
27 2 22.116 1.9167 41.4608
28 2 22.1063 13.6936 0.181966
29 2 22.111 13.6921 8.43432
30 2 22.1092 13.6909 16.6911
31 2 22.1036 13.6865 24.9501
32 2 22.1044 13.6895 33.2124
33 2 22.1181 13.6893 41.4627
34 2 22.1085 25.4614 0.176467
35 2 22.1067 25.457 8.43166
36 2 22.1057 25.4645 16.6958
37 2 22.1063 25.4577 24.9546
38 2 22.1106 25.4586 33.2073
39 2 22.1069 25.4612 41.4664
40 2 22.1121 37.228 0.175618
41 2 22.1129 37.2321 8.43611
42 2 22.1069 37.2339 16.6917
43 2 28.0163 25.4602 8.43906
44 2 22.1151 1.91953 8.42832
45 2 28.0189 25.4563 16.6955
46 2 28.0182 25.4579 33.2064
47 2 33.9194 13.6842 33.2101
48 2 33.9321 13.6852 41.4645
49 2 33.9184 25.4614 0.181261
50 2 33.9215 25.4592 8.44273
51 2 33.9131 25.4586 16.684
52 2 33.9243 25.4537 24.9555
53 2 33.922 25.4537 33.1986
54 2 33.9125 25.4638 41.4653
55 2 33.9271 13.6881 24.9408
56 2 33.9115 37.2345 0.186846
57 2 33.9207 37.2364 16.694
58 2 33.9287 37.2268 24.9535
59 2 33.9206 37.2298 33.2088
60 2 33.9262 37.229 41.4671
61 2 33.9193 49.0096 0.178366
62 2 33.9114 49.0061 8.43624
63 2 33.9253 48.9968 16.6968
64 2 33.924 48.9958 24.9559
65 2 33.9181 37.2351 8.43457
66 2 33.917 13.6907 16.7009
67 2 33.9263 13.685 8.44182
68 2 33.9192 13.6853 0.178024
69 2 28.0114 25.4563 41.4677
70 2 28.0108 37.2303 0.181291
71 2 28.0122 37.2306 8.44564
72 2 28.0115 37.2395 16.692
73 2 28.0167 37.2255 24.9514
74 2 28.0128 37.231 33.2124
75 2 28.0173 37.2324 41.453
76 2 28.0186 48.9962 0.184472
77 2 28.0111 48.9984 8.43206
78 2 28.0132 49.003 16.6988
79 2 28.0181 49.0033 24.9562
80 2 28.0242 48.9935 33.2111
81 2 28.018 49.0024 41.4651
82 2 33.9257 1.91426 0.189617
83 2 33.9244 1.91699 8.43963
84 2 33.9282 1.91208 16.6985
85 2 33.9197 1.92405 24.9437
86 2 33.9227 1.9233 33.2115
87 2 33.9274 1.92013 41.4577
88 2 28.0155 25.4676 24.9532
89 2 33.9205 49.0021 33.2173
90 2 22.1183 1.9174 0.180886
91 2 16.2104 49 33.209
92 2 4.39646 49.0013 8.43289
93 2 4.40101 49 16.7077
94 2 4.3981 49.0051 24.9468
95 2 4.40239 48.9966 33.2149
96 2 4.39753 48.9995 41.454
97 2 10.3007 1.91885 0.181477
98 2 10.3033 1.91544 8.44559
99 2 10.3151 1.911 16.6992
100 2 4.39873 49.0018 0.188821
101 2 10.3026 1.91104 24.9515
102 2 10.2959 1.91158 41.4621
103 2 10.3079 13.6888 0.187678
104 2 10.3009 13.6861 8.44019
105 2 10.2993 13.688 16.6967
106 2 10.304 13.6891 24.9551
107 2 10.3024 13.6919 33.2055
108 2 10.3118 13.6845 41.4587
109 2 10.2948 25.4659 0.189366
110 2 10.302 1.91783 33.2171
111 2 4.39086 37.2277 41.4598
112 2 4.40118 37.222 33.2032
113 2 4.39972 37.2267 24.9564
114 2 4.40628 1.91893 16.6907
115 2 4.39214 1.92081 24.9492
116 2 4.40587 1.917 33.2063
117 2 4.40021 1.91811 41.4664
118 2 4.39847 13.6841 0.182987
119 2 4.40116 13.6859 8.44192
120 2 4.38999 13.6935 16.6918
121 2 4.40745 13.6854 24.9497
122 2 4.39463 13.69 33.2012
123 2 4.40557 13.6864 41.4649
124 2 4.39642 25.4624 0.191974
125 2 4.401 25.4621 8.44151
126 2 4.38715 25.4633 16.6984
127 2 4.39753 25.4572 24.9529
128 2 4.39493 25.4597 33.2084
129 2 4.39158 25.4624 41.4523
130 2 4.40404 37.2219 0.17498
131 2 4.3986 37.2303 8.43546
132 2 4.39218 37.2347 16.6935
133 2 10.2983 25.4584 8.43084
134 2 16.2042 49.0051 41.4643
135 2 10.2999 25.4598 16.7055
136 2 10.3056 25.4647 33.2099
137 2 16.2034 13.6912 33.2151
138 2 16.206 13.6965 41.4576
139 2 16.1972 25.4698 0.192166
140 2 16.2021 25.4612 8.43505
141 2 16.2109 25.4612 16.6939
142 2 16.1966 25.4608 24.9491
143 2 16.2093 25.4579 33.2126
144 2 16.2096 25.4572 41.4597
145 2 16.2141 13.6834 24.9478
146 2 16.2081 37.2314 0.178946
147 2 16.2031 37.2339 16.6907
148 2 16.2038 37.2332 24.9457
149 2 16.2069 37.2262 33.2057
150 2 16.1994 37.2386 41.457
151 2 16.2103 49.0028 0.176488
152 2 16.1966 48.9958 8.43701
153 2 16.2058 49.0006 16.6904
154 2 16.2069 49.0003 24.9559
155 2 16.2069 37.2293 8.43425
156 2 16.2022 13.6832 16.6991
157 2 16.2128 13.6918 8.43547
158 2 16.1994 13.6962 0.187676
159 2 10.3061 25.4576 41.4621
160 2 10.3048 37.2305 0.176521
161 2 10.3004 37.2347 8.43557
162 2 10.2946 37.2337 16.6926
163 2 10.2968 37.2387 24.9519
164 2 10.2997 37.2271 33.2005
165 2 10.3012 37.226 41.4639
166 2 10.3025 48.9995 0.172878
167 2 10.3013 48.9947 8.44887
168 2 10.3096 48.994 16.6913
169 2 10.3056 48.9964 24.9555
170 2 10.3004 49.004 33.2063
171 2 10.3028 49.0023 41.467
172 2 16.2117 1.92048 0.177028
173 2 16.2022 1.92463 8.42998
174 2 16.207 1.90993 16.6944
175 2 16.2112 1.91301 24.9556
176 2 16.2041 1.91799 33.2055
177 2 16.1984 1.91788 41.4603
178 2 10.2958 25.4572 24.9516
179 2 4.39918 1.91437 8.43291
180 2 33.9112 49.0018 41.4613
181 2 1.44355 4.84114 8.43505
182 2 19.1593 51.9217 8.44586
183 2 19.1565 51.9282 16.6788
184 2 19.1596 51.9241 24.9559
185 2 19.1504 51.9234 33.2092
186 2 19.1587 51.9286 41.4561
187 2 25.054 4.83465 0.178154
188 2 25.0638 4.84336 8.44309
189 2 25.0686 4.84384 16.6945
190 2 19.1617 51.9307 0.179104
191 2 25.0641 4.84325 24.9531
192 2 25.0705 4.84187 41.4624
193 2 25.0618 16.6152 0.185965
194 2 25.0652 16.6082 8.43579
195 2 25.071 16.618 16.6981
196 2 25.06 16.6126 24.9516
197 2 25.0564 16.6168 33.2096
198 2 25.068 16.6192 41.4603
199 2 25.0703 28.3855 0.184356
200 2 25.0616 4.83906 33.1984
201 2 19.1658 40.152 41.4676
202 2 19.1614 40.1575 33.2148
203 2 19.1574 40.1542 24.9451
204 2 19.1618 4.84201 16.6891
205 2 19.1592 4.84188 24.9551
206 2 19.1494 4.83977 33.2064
207 2 19.1578 4.83621 41.4587
208 2 19.1617 16.6148 0.181447
209 2 19.1573 16.6099 8.43782
210 2 19.1576 16.6181 16.7009
211 2 19.1551 16.6071 24.9455
212 2 19.1481 16.6082 33.2114
213 2 19.1545 16.6122 41.4683
214 2 19.1613 28.3816 0.179849
215 2 19.1547 28.3812 8.4413
216 2 19.158 28.3809 16.6944
217 2 19.1539 28.3852 24.9536
218 2 19.1641 28.3862 33.2097
219 2 19.1618 28.3879 41.4653
220 2 19.1692 40.1506 0.186724
221 2 19.159 40.1556 8.42718
222 2 19.1567 40.1484 16.6886
223 2 25.062 28.3824 8.44097
224 2 19.1615 4.84109 8.42954
225 2 25.0559 28.381 16.6912
226 2 25.0687 28.3833 33.2091
227 2 30.9755 16.6151 33.2153
228 2 30.9739 16.6149 41.4599
229 2 30.9728 28.3823 0.175846
230 2 30.9642 28.3775 8.43333
231 2 30.9732 28.3852 16.6944
232 2 30.9529 28.3829 24.9512
233 2 30.9701 28.3831 33.1988
234 2 30.9724 28.3872 41.4672
235 2 30.9678 16.6114 24.9491
236 2 30.9656 40.1568 0.18719
237 2 30.9776 40.1553 16.688
238 2 30.9754 40.1553 24.9559
239 2 30.9651 40.153 33.2011
240 2 30.9702 40.154 41.4545
241 2 30.9704 51.9241 0.180385
242 2 30.9631 51.9235 8.44103
243 2 30.9653 51.9264 16.698
244 2 30.9686 51.9278 24.9582
245 2 30.9685 40.1543 8.43696
246 2 30.9613 16.6117 16.6973
247 2 30.9702 16.6127 8.43321
248 2 30.9627 16.6115 0.190203
249 2 25.0611 28.382 41.4635
250 2 25.0636 40.1596 0.173591
251 2 25.0619 40.1554 8.43935
252 2 25.0667 40.1512 16.6952
253 2 25.0586 40.1535 24.9498
254 2 25.0617 40.1494 33.2151
255 2 25.0686 40.1571 41.4607
256 2 25.0691 51.9288 0.181189
257 2 25.0634 51.922 8.43716
258 2 25.0666 51.9209 16.6992
259 2 25.0568 51.926 24.9548
260 2 25.0726 51.9284 33.2088
261 2 25.0661 51.925 41.4578
262 2 30.9677 4.83949 0.180481
263 2 30.9743 4.8433 8.43772
264 2 30.9763 4.84416 16.694
265 2 30.9657 4.84678 24.9555
266 2 30.9654 4.84116 33.2115
267 2 30.9794 4.84992 41.4607
268 2 25.0598 28.3853 24.9482
269 2 1.4475 4.84262 0.178934
270 2 19.156 4.8383 0.183381
271 2 13.2523 51.9305 33.2024
272 2 1.44292 51.9261 8.43946
273 2 1.44523 51.9266 16.695
274 2 1.44699 51.9283 24.9414
275 2 1.43973 51.9212 33.2225
276 2 1.44248 51.9228 41.4587
277 2 7.35517 4.84533 0.187427
278 2 7.34729 4.84297 8.44387
279 2 7.34794 4.84112 16.6963
280 2 1.45261 51.9282 0.185707
281 2 7.34457 4.84137 24.9422
282 2 7.34914 4.84195 41.4576
283 2 7.34354 16.614 0.18083
284 2 7.34753 16.6148 8.44688
285 2 7.35582 16.6163 16.6934
286 2 7.34692 16.6111 24.952
287 2 7.35003 16.614 33.2058
288 2 7.34679 16.6151 41.4573
289 2 7.34764 28.3889 0.190419
290 2 7.34167 4.83946 33.2062
291 2 1.45072 40.1627 41.4702
292 2 1.4373 40.1474 33.2023
293 2 1.4425 40.1583 24.9561
294 2 1.44611 4.83886 16.6896
295 2 1.44045 4.84248 24.9452
296 2 1.44015 4.83673 33.2017
297 2 1.4422 4.84193 41.459
298 2 1.4494 16.6175 0.183064
299 2 1.44557 16.6091 8.44289
300 2 1.44266 16.6131 16.6929
301 2 1.44976 16.6174 24.948
302 2 1.44991 16.6169 33.2097
303 2 1.44305 16.6155 41.4611
304 2 1.44604 28.3871 0.193648
305 2 1.44832 28.3834 8.44955
306 2 1.43605 28.3799 16.6929
307 2 1.43822 28.385 24.9473
308 2 1.45691 28.3896 33.2053
309 2 1.44244 28.3903 41.4578
310 2 1.43648 40.1515 0.191018
311 2 1.43712 40.156 8.43613
312 2 1.44836 40.1596 16.7003
313 2 7.34728 28.3844 8.43659
314 2 13.2573 51.9217 41.4667
315 2 7.34425 28.3839 16.7033
316 2 7.34738 28.3747 33.2051
317 2 13.2487 16.6101 33.2135
318 2 13.2501 16.6111 41.4621
319 2 13.259 28.3909 0.186408
320 2 13.254 28.3857 8.4426
321 2 13.2608 28.3916 16.7051
322 2 13.2499 28.3801 24.9555
323 2 13.2507 28.3799 33.2064
324 2 13.2595 28.3892 41.4592
325 2 13.241 16.6072 24.9532
326 2 13.2587 40.1569 0.174494
327 2 13.2599 40.1544 16.7038
328 2 13.2514 40.1517 24.9475
329 2 13.2467 40.154 33.2005
330 2 13.257 40.1542 41.4603
331 2 13.2544 51.9359 0.183795
332 2 13.2576 51.9265 8.43986
333 2 13.2541 51.9265 16.6987
334 2 13.2473 51.9251 24.9521
335 2 13.2571 40.1585 8.43529
336 2 13.2536 16.6098 16.6991
337 2 13.2558 16.6124 8.43899
338 2 13.2488 16.6116 0.186801
339 2 7.35302 28.3842 41.4462
340 2 7.34278 40.1531 0.178264
341 2 7.3475 40.1534 8.43035
342 2 7.35434 40.1643 16.6996
343 2 7.34658 40.1493 24.9589
344 2 7.34085 40.155 33.2009
345 2 7.34745 40.1569 41.4649
346 2 7.35692 51.935 0.188639
347 2 7.35959 51.9305 8.44794
348 2 7.35393 51.9314 16.7038
349 2 7.35122 51.928 24.9494
350 2 7.34113 51.9225 33.2069
351 2 7.35232 51.9246 41.4607
352 2 13.2531 4.84567 0.178932
353 2 13.2543 4.84212 8.43295
354 2 13.2468 4.8392 16.7007
355 2 13.2553 4.84029 24.95
356 2 13.245 4.8423 33.2129
357 2 13.2499 4.83923 41.4645
358 2 7.34746 28.3823 24.9434
359 2 30.9739 51.9338 33.2113
360 2 4.39987 1.91414 0.180294
361 2 34.4273 54.8886 33.207
362 2 19.6657 57.8205 8.44236
363 2 19.6693 57.8087 16.7017
364 2 19.6711 57.8093 24.9538
365 2 19.6662 57.8122 33.2071
366 2 19.6723 57.8102 41.4623
367 2 25.5671 10.7208 0.183919
368 2 25.578 10.7238 8.43263
369 2 25.572 10.7251 16.6979
370 2 19.6735 57.8106 0.184631
371 2 25.5571 10.7282 24.946
372 2 25.5711 10.7275 41.4702
373 2 25.5707 22.4966 0.176533
374 2 25.5696 22.5028 8.44535
375 2 25.5723 22.4998 16.694
376 2 25.5831 22.4946 24.9523
377 2 25.5776 22.4937 33.2055
378 2 25.5674 22.5009 41.4691
379 2 25.5715 34.2688 0.189365
380 2 25.5718 10.7322 33.2133
381 2 19.6654 46.041 41.458
382 2 19.657 46.0414 33.2004
383 2 19.6725 46.0408 24.9507
384 2 19.6635 10.7253 16.6821
385 2 19.653 10.7312 24.9488
386 2 19.6651 10.7304 33.204
387 2 19.6714 10.7228 41.4742
388 2 19.6618 22.4958 0.175988
389 2 19.6641 22.504 8.44111
390 2 19.6793 22.495 16.6943
391 2 19.6669 22.5004 24.9528
392 2 19.673 22.4971 33.2007
393 2 19.6665 22.5017 41.464
394 2 19.6697 34.2669 0.18749
395 2 19.664 34.2697 8.43771
396 2 19.6692 34.268 16.6997
397 2 19.6654 34.2677 24.9563
398 2 19.6653 34.2698 33.2025
399 2 19.6649 34.2698 41.46
400 2 19.6681 46.0403 0.176842
401 2 19.6624 46.0449 8.43775
402 2 19.6662 46.0459 16.6953
403 2 25.5831 34.2698 8.44288
404 2 19.6708 10.7243 8.44442
405 2 25.5675 34.2722 16.6917
406 2 25.5792 34.2672 33.2107
407 2 31.4771 22.4984 33.2052
408 2 31.4795 22.4974 41.4687
409 2 31.4781 34.2675 0.183201
410 2 31.4776 34.2739 8.43518
411 2 31.4732 34.2694 16.695
412 2 31.4778 34.2711 24.9514
413 2 31.4802 34.2661 33.2067
414 2 31.4795 34.2619 41.4652
415 2 31.4846 22.4989 24.9608
416 2 31.4765 46.0408 0.177857
417 2 31.471 46.0408 16.6961
418 2 31.4814 46.0432 24.9482
419 2 31.4761 46.0414 33.2073
420 2 31.482 46.0357 41.4716
421 2 31.4808 57.8142 0.188676
422 2 31.481 57.8061 8.43943
423 2 31.4784 57.8085 16.7062
424 2 31.4833 57.8148 24.9508
425 2 31.4719 46.0371 8.44081
426 2 31.472 22.502 16.7001
427 2 31.4804 22.4925 8.43254
428 2 31.4723 22.4978 0.185882
429 2 25.5759 34.2716 41.4647
430 2 25.5696 46.0423 0.178135
431 2 25.5673 46.0404 8.45136
432 2 25.5727 46.035 16.7006
433 2 25.5789 46.0422 24.9509
434 2 25.5665 46.0483 33.1994
435 2 25.5771 46.0402 41.4662
436 2 25.5729 57.8115 0.180808
437 2 25.5827 57.8073 8.43896
438 2 25.5655 57.8122 16.6979
439 2 25.5843 57.8118 24.9518
440 2 25.573 57.811 33.2085
441 2 25.5708 57.8161 41.4655
442 2 31.4712 10.7266 0.177947
443 2 31.476 10.7266 8.4487
444 2 31.4696 10.734 16.69
445 2 31.4705 10.7308 24.9533
446 2 31.4768 10.7279 33.202
447 2 31.4816 10.721 41.4665
448 2 25.5793 34.272 24.9451
449 2 31.4872 57.8085 33.2036
450 2 19.6687 10.7257 0.171325
451 2 13.7604 57.8102 33.2037
452 2 1.94527 57.8144 8.44179
453 2 1.95334 57.8053 16.6837
454 2 1.95539 57.8072 24.9567
455 2 1.95831 57.808 33.2025
456 2 1.94647 57.8145 41.4724
457 2 7.86005 10.732 0.17928
458 2 7.85229 10.7267 8.427
459 2 7.84865 10.7286 16.692
460 2 1.95109 57.811 0.1871
461 2 7.86276 10.7279 24.962
462 2 7.86227 10.7305 41.4674
463 2 7.85994 22.4978 0.184348
464 2 7.86078 22.4951 8.44285
465 2 7.85834 22.4974 16.6994
466 2 7.8613 22.498 24.9518
467 2 7.86232 22.5032 33.2134
468 2 7.86159 22.5001 41.4698
469 2 7.84918 34.2727 0.176604
470 2 7.85862 10.7275 33.2073
471 2 1.96632 46.0353 41.4575
472 2 1.95357 46.0438 33.2092
473 2 1.95572 46.041 24.9583
474 2 1.94791 10.7246 16.7025
475 2 1.95485 10.7234 24.9566
476 2 1.9554 10.7282 33.1997
477 2 1.95286 10.7276 41.4636
478 2 1.95013 22.499 0.174269
479 2 1.95686 22.4955 8.43161
480 2 1.94468 22.5004 16.7001
481 2 1.95401 22.4983 24.9534
482 2 1.95753 22.4982 33.2129
483 2 1.95652 22.499 41.4676
484 2 1.94824 34.275 0.176056
485 2 1.96047 34.2657 8.44363
486 2 1.95662 34.2677 16.6994
487 2 1.95254 34.2712 24.9409
488 2 1.94198 34.2723 33.2101
489 2 1.95205 34.2744 41.4666
490 2 1.94371 46.0465 0.181494
491 2 1.93994 46.0432 8.43261
492 2 1.94845 46.0434 16.6926
493 2 7.86544 34.2684 8.44751
494 2 13.7603 57.8104 41.4609
495 2 7.8566 34.2712 16.6803
496 2 7.84714 34.2764 33.2142
497 2 13.7726 22.4943 33.2038
498 2 13.7642 22.4968 41.4669
499 2 13.7573 34.2675 0.188472
500 2 13.7563 34.2735 8.44083
501 2 13.7607 34.2704 16.6928
502 2 13.7674 34.2652 24.9579
503 2 13.7603 34.2689 33.1966
504 2 13.7618 34.2733 41.4563
505 2 13.7643 22.4973 24.9499
506 2 13.7666 46.0436 0.179319
507 2 13.7547 46.0406 16.6958
508 2 13.774 46.0387 24.9504
509 2 13.7699 46.0352 33.2032
510 2 13.762 46.0389 41.4688
511 2 13.7618 57.8131 0.190237
512 2 13.7689 57.8113 8.43197
513 2 13.7627 57.8035 16.693
514 2 13.7661 57.8104 24.9553
515 2 13.7604 46.0371 8.4308
516 2 13.769 22.5005 16.6914
517 2 13.7575 22.4991 8.45049
518 2 13.7525 22.4974 0.178279
519 2 7.85286 34.2716 41.4689
520 2 7.84288 46.0447 0.18533
521 2 7.85551 46.0395 8.44111
522 2 7.84912 46.0422 16.6869
523 2 7.85768 46.0467 24.9391
524 2 7.85832 46.0448 33.2096
525 2 7.86211 46.0354 41.4637
526 2 7.85603 57.8083 0.18211
527 2 7.85304 57.8061 8.43638
528 2 7.85779 57.8191 16.6892
529 2 7.85725 57.8189 24.9559
530 2 7.85471 57.8147 33.2049
531 2 7.86324 57.8109 41.4661
532 2 13.7568 10.729 0.183927
533 2 13.7599 10.7324 8.45111
534 2 13.7538 10.7262 16.6955
535 2 13.7643 10.724 24.9412
536 2 13.7657 10.7255 33.2017
537 2 13.756 10.7322 41.4594
538 2 7.86063 34.2702 24.952
539 2 34.4331 54.886 41.4711
540 2 31.4678 57.8195 41.4689
541 2 4.90503 7.79988 8.43551
542 2 22.6188 54.8851 8.43762
543 2 22.6213 54.8876 16.7037
544 2 22.6262 54.8913 24.9552
545 2 22.6168 54.8912 33.2115
546 2 22.6226 54.8903 41.4677
547 2 28.5266 7.80084 0.174371
548 2 28.5282 7.80355 8.43811
549 2 28.526 7.79941 16.6884
550 2 22.6148 54.8895 0.183066
551 2 28.5303 7.81232 24.9505
552 2 28.525 7.80552 41.4653
553 2 28.5316 19.5774 0.181708
554 2 28.5218 19.5728 8.43224
555 2 28.5298 19.5783 16.6953
556 2 28.5219 19.5767 24.9597
557 2 28.533 19.5737 33.207
558 2 28.5292 19.5782 41.469
559 2 28.5286 31.3498 0.184479
560 2 28.5249 7.80434 33.2018
561 2 22.6266 43.1127 41.4575
562 2 22.6176 43.1227 33.1978
563 2 22.6228 43.1206 24.9509
564 2 22.6208 7.80595 16.6874
565 2 22.6163 7.80689 24.9531
566 2 22.614 7.80331 33.2029
567 2 22.6168 7.80698 41.4713
568 2 22.6247 19.579 0.177259
569 2 22.6169 19.5765 8.44503
570 2 22.6211 19.5812 16.6956
571 2 22.6202 19.5694 24.9486
572 2 22.6208 19.5742 33.2055
573 2 22.6203 19.5813 41.461
574 2 22.6254 31.3493 0.189969
575 2 22.622 31.3377 8.43601
576 2 22.6106 31.3394 16.6982
577 2 22.6228 31.3503 24.9494
578 2 22.6235 31.3413 33.2168
579 2 22.6232 31.3455 41.4646
580 2 22.6234 43.119 0.178991
581 2 22.6209 43.1176 8.43882
582 2 22.6259 43.1109 16.6953
583 2 28.5393 31.349 8.43898
584 2 22.6106 7.80414 8.44708
585 2 28.5219 31.347 16.6895
586 2 28.5191 31.345 33.208
587 2 34.4364 19.5732 33.2022
588 2 34.4299 19.5734 41.4666
589 2 34.4355 31.3436 0.181865
590 2 34.4413 31.3501 8.44156
591 2 34.4363 31.3428 16.6935
592 2 34.4282 31.3435 24.9506
593 2 34.4249 31.3354 33.2086
594 2 34.4259 31.3441 41.4583
595 2 34.4271 19.5686 24.941
596 2 34.4328 43.1144 0.185033
597 2 34.4225 43.1135 16.6984
598 2 34.4357 43.1171 24.9528
599 2 34.4339 43.1155 33.2006
600 2 34.4293 43.1172 41.4637
601 2 34.4262 54.8831 0.183462
602 2 34.4287 54.8864 8.44303
603 2 34.4289 54.884 16.696
604 2 34.4257 54.885 24.9567
605 2 34.4275 43.1125 8.43685
606 2 34.4314 19.5713 16.6979
607 2 34.4287 19.5749 8.43623
608 2 34.4288 19.5735 0.183528
609 2 28.5252 31.3453 41.4637
610 2 28.5211 43.118 0.18296
611 2 28.5269 43.118 8.44071
612 2 28.5266 43.1205 16.7012
613 2 28.5292 43.1158 24.9522
614 2 28.5277 43.1146 33.1992
615 2 28.5285 43.118 41.4675
616 2 28.5102 54.8782 0.185787
617 2 28.5282 54.8828 8.44578
618 2 28.5243 54.8903 16.6944
619 2 28.5225 54.8819 24.9507
620 2 28.5242 54.8798 33.2111
621 2 28.5228 54.8844 41.4644
622 2 34.4257 7.80476 0.175385
623 2 34.4275 7.80314 8.43735
624 2 34.4245 7.7974 16.6911
625 2 34.425 7.79941 24.9578
626 2 34.43 7.80352 33.2123
627 2 34.4222 7.8012 41.4618
628 2 28.5294 31.3515 24.9476
629 2 4.90058 7.80529 0.186995
630 2 22.6116 7.80842 0.184306
631 2 16.7114 54.8844 33.2066
632 2 4.90376 54.8925 8.44782
633 2 4.90306 54.8828 16.6884
634 2 4.90564 54.883 24.9499
635 2 4.90617 54.8866 33.2031
636 2 4.90736 54.8892 41.4715
637 2 10.8044 7.80228 0.174059
638 2 10.813 7.80649 8.43199
639 2 10.8095 7.793 16.6912
640 2 4.90307 54.8848 0.186902
641 2 10.8047 7.80165 24.9426
642 2 10.8053 7.80556 41.4615
643 2 10.8087 19.5753 0.178072
644 2 10.8129 19.5759 8.44255
645 2 10.8058 19.5728 16.694
646 2 10.8111 19.5764 24.9517
647 2 10.8217 19.5772 33.2151
648 2 10.8054 19.5693 41.4755
649 2 10.8095 31.3385 0.180004
650 2 10.8116 7.80494 33.2037
651 2 4.90463 43.1192 41.4613
652 2 4.89802 43.1098 33.214
653 2 4.90936 43.1192 24.9545
654 2 4.89609 7.79587 16.6901
655 2 4.89555 7.80628 24.9567
656 2 4.90819 7.80858 33.2049
657 2 4.90106 7.79848 41.4564
658 2 4.90499 19.5764 0.178888
659 2 4.90282 19.5731 8.44197
660 2 4.90574 19.5702 16.6965
661 2 4.89855 19.5728 24.9511
662 2 4.90832 19.5753 33.2126
663 2 4.90345 19.5726 41.4676
664 2 4.91379 31.3522 0.181893
665 2 4.9093 31.3444 8.44703
666 2 4.90177 31.3437 16.6983
667 2 4.90802 31.3437 24.9492
668 2 4.90402 31.3429 33.2085
669 2 4.90168 31.3432 41.4718
670 2 4.91423 43.1198 0.186909
671 2 4.90364 43.1137 8.44055
672 2 4.89913 43.1139 16.6895
673 2 10.8073 31.3469 8.44095
674 2 16.7078 54.8847 41.4646
675 2 10.8041 31.3413 16.69
676 2 10.8143 31.3475 33.2114
677 2 16.7156 19.5725 33.199
678 2 16.7114 19.5752 41.4659
679 2 16.7125 31.348 0.179953
680 2 16.7114 31.3439 8.43952
681 2 16.7172 31.3442 16.694
682 2 16.7147 31.3474 24.9525
683 2 16.7248 31.348 33.21
684 2 16.7127 31.3474 41.4676
685 2 16.7214 19.5781 24.951
686 2 16.7254 43.1191 0.175583
687 2 16.7194 43.1167 16.6925
688 2 16.7187 43.1186 24.9554
689 2 16.7249 43.1145 33.207
690 2 16.7185 43.12 41.4677
691 2 16.7089 54.8841 0.189652
692 2 16.7229 54.8864 8.4456
693 2 16.7185 54.8868 16.6927
694 2 16.7217 54.8834 24.9481
695 2 16.7172 43.1149 8.42438
696 2 16.7156 19.5749 16.6895
697 2 16.7085 19.5713 8.447
698 2 16.7077 19.5691 0.177567
699 2 10.8085 31.3467 41.4599
700 2 10.8135 43.1157 0.183724
701 2 10.8049 43.1114 8.43295
702 2 10.8094 43.1146 16.6985
703 2 10.8158 43.1135 24.9419
704 2 10.8121 43.116 33.208
705 2 10.8128 43.1121 41.4644
706 2 10.8028 54.8833 0.189997
707 2 10.8069 54.8832 8.42615
708 2 10.8069 54.8939 16.6853
709 2 10.8058 54.89 24.9522
710 2 10.8073 54.8907 33.1962
711 2 10.8182 54.8911 41.4641
712 2 16.7076 7.80554 0.181176
713 2 16.7147 7.79558 8.44181
714 2 16.7163 7.8031 16.6921
715 2 16.7232 7.80381 24.9472
716 2 16.7198 7.80153 33.2061
717 2 16.7176 7.80342 41.4644
718 2 10.8083 31.3423 24.9566
719 2 30.9667 51.9272 41.465
720 2 1.92177 10.6978 4.30986
721 2 1.93256 10.6964 12.5662
722 2 22.1405 49.0351 29.0854
723 2 22.1378 49.0323 37.3297
724 2 22.1409 49.0343 45.5741
725 2 28.0456 1.95232 4.31106
726 2 28.0434 1.95053 12.5715
727 2 28.0406 1.94922 20.8188
728 2 28.0408 1.94611 29.0792
729 2 28.0467 1.94664 37.3288
730 2 22.138 49.0338 20.827
731 2 28.0491 1.95066 45.5841
732 2 28.0435 13.7217 12.5643
733 2 28.0366 13.7182 20.8288
734 2 28.0368 13.7232 29.0848
735 2 28.0451 13.7179 37.3363
736 2 28.0374 13.7196 45.5945
737 2 28.0433 25.4924 4.30611
738 2 28.0411 25.4921 12.5596
739 2 28.0451 25.4951 20.8215
740 2 28.0314 13.7213 4.3027
741 2 22.1347 49.034 12.5711
742 2 22.1337 49.0361 4.31234
743 2 22.134 37.2618 45.593
744 2 22.1424 1.95405 37.3343
745 2 22.1396 1.94901 45.5861
746 2 22.1342 13.7223 4.30451
747 2 22.1381 13.7263 12.5757
748 2 22.1338 13.724 20.8196
749 2 22.1444 13.7205 29.084
750 2 22.1385 13.7198 37.3393
751 2 22.138 13.7253 45.5921
752 2 22.1387 25.4876 4.30459
753 2 22.1378 25.4939 12.5691
754 2 22.1433 25.4902 20.8325
755 2 22.136 25.4953 29.075
756 2 22.1311 25.4925 37.3351
757 2 22.1367 25.5018 45.5894
758 2 22.1348 37.263 4.31077
759 2 22.135 37.2523 12.5639
760 2 22.1396 37.2604 20.8286
761 2 22.1328 37.2656 29.0786
762 2 22.1353 37.263 37.3336
763 2 28.0406 25.496 29.0748
764 2 22.1355 1.94981 29.0843
765 2 28.0383 25.4914 37.3399
766 2 28.0425 37.2591 4.31008
767 2 33.9486 25.4901 4.31465
768 2 33.9445 25.4954 12.5684
769 2 33.9379 25.4905 20.8258
770 2 33.9529 25.4832 29.0803
771 2 33.9415 25.49 37.3384
772 2 33.941 25.4961 45.5931
773 2 33.9471 37.2581 4.30841
774 2 33.9524 37.2635 12.568
775 2 33.9408 13.7239 45.5911
776 2 33.951 37.2608 20.8229
777 2 33.9527 37.2565 37.3289
778 2 33.944 37.2668 45.5901
779 2 33.9414 49.0328 4.30749
780 2 33.9498 49.0334 12.5706
781 2 33.948 49.027 20.8163
782 2 33.9488 49.0342 29.0897
783 2 33.9395 49.0334 37.3389
784 2 33.953 49.0332 45.5919
785 2 33.9433 37.259 29.0774
786 2 33.9476 13.7212 37.331
787 2 33.9464 13.721 29.075
788 2 33.9507 13.7135 20.8266
789 2 28.0441 37.2643 12.5698
790 2 28.0416 37.2678 20.8172
791 2 28.0355 37.2622 29.0811
792 2 28.0492 37.2656 37.3398
793 2 28.0421 37.2657 45.5904
794 2 28.0368 49.0314 4.30632
795 2 28.0441 49.0328 12.5699
796 2 28.0457 49.0319 20.8264
797 2 28.0447 49.0299 29.0741
798 2 28.04 49.0259 37.3362
799 2 28.0396 49.0352 45.5956
800 2 33.9467 1.95263 4.3071
801 2 33.9403 1.94507 12.5695
802 2 33.9504 1.9481 20.8279
803 2 33.9471 1.95338 29.0825
804 2 33.9516 1.94598 37.3323
805 2 33.9518 1.94504 45.5953
806 2 33.9445 13.7143 4.31754
807 2 33.9491 13.716 12.5701
808 2 28.0415 25.4959 45.5947
809 2 1.47197 4.81083 4.30629
810 2 22.1321 1.95315 20.8298
811 2 22.1385 1.95435 4.31846
812 2 4.42306 49.0303 29.0806
813 2 4.42349 49.0357 37.3375
814 2 4.42095 49.0303 45.5905
815 2 10.3255 1.94285 4.31194
816 2 10.3382 1.95 12.5522
817 2 10.3331 1.95069 20.8229
818 2 10.328 1.9495 29.0731
819 2 10.3277 1.94588 37.3338
820 2 4.4242 49.034 20.8221
821 2 10.3348 1.94211 45.5935
822 2 10.3255 13.7152 12.5653
823 2 10.3243 13.7147 20.8124
824 2 10.3333 13.7246 29.0806
825 2 10.331 13.7205 37.3283
826 2 10.3243 13.7244 45.5913
827 2 10.3286 25.4971 4.31363
828 2 10.3214 25.4905 12.572
829 2 10.3254 25.5015 20.8241
830 2 10.3324 13.7228 4.30944
831 2 4.41995 49.0321 12.5641
832 2 4.42493 49.0311 4.31426
833 2 4.42352 37.2633 45.5876
834 2 4.42141 1.9454 37.3341
835 2 4.42402 1.94628 45.5967
836 2 4.42691 13.7212 4.30123
837 2 4.42031 13.7139 12.5723
838 2 4.41926 13.7142 20.8284
839 2 4.42332 13.7199 29.0838
840 2 4.42753 13.7181 37.332
841 2 4.42663 13.7147 45.5944
842 2 4.42166 25.4936 4.307
843 2 4.42696 25.485 12.5759
844 2 4.41716 25.4879 20.8195
845 2 4.42068 25.4856 29.0739
846 2 4.41998 25.4883 37.3407
847 2 4.42387 25.4936 45.593
848 2 4.42329 37.2627 4.31459
849 2 4.41852 37.2704 12.5673
850 2 4.42466 37.268 20.8173
851 2 4.4227 37.2555 29.0809
852 2 4.42365 37.2609 37.3417
853 2 10.3262 25.4927 29.0771
854 2 22.1399 1.94491 12.5702
855 2 10.3286 25.4897 37.3453
856 2 10.3261 37.2634 4.30079
857 2 16.2331 25.4883 4.30546
858 2 16.2297 25.4906 12.569
859 2 16.2292 25.4935 20.8225
860 2 16.2297 25.4941 29.0855
861 2 16.2306 25.4915 37.3327
862 2 16.23 25.4936 45.5884
863 2 16.2281 37.258 4.31087
864 2 16.2341 37.263 12.5636
865 2 16.2373 13.7172 45.5945
866 2 16.2359 37.2597 20.8226
867 2 16.2282 37.2673 37.3323
868 2 16.2362 37.2662 45.5955
869 2 16.2339 49.032 4.30574
870 2 16.2248 49.0278 12.5654
871 2 16.2349 49.0349 20.8139
872 2 16.2311 49.032 29.0799
873 2 16.2213 49.0356 37.3317
874 2 16.2333 49.0315 45.5927
875 2 16.23 37.2633 29.0769
876 2 16.2372 13.7189 37.337
877 2 16.2283 13.7256 29.0799
878 2 16.2295 13.7207 20.8226
879 2 10.3294 37.2716 12.5648
880 2 10.3228 37.2603 20.824
881 2 10.3263 37.2654 29.0774
882 2 10.3315 37.2584 37.3304
883 2 10.3274 37.2612 45.5863
884 2 10.3289 49.0252 4.30387
885 2 10.3269 49.0334 12.5617
886 2 10.3306 49.0413 20.8275
887 2 10.3295 49.027 29.0764
888 2 10.3289 49.033 37.3396
889 2 10.3202 49.0314 45.5927
890 2 16.2351 1.94707 4.304
891 2 16.2362 1.94681 12.5771
892 2 16.2308 1.94823 20.8207
893 2 16.2345 1.94723 29.0717
894 2 16.2303 1.94869 37.3335
895 2 16.2352 1.94641 45.5923
896 2 16.2392 13.7194 4.31648
897 2 16.2325 13.7178 12.5682
898 2 10.3252 25.4902 45.5877
899 2 4.4146 1.94747 29.0724
900 2 1.46954 4.80974 12.5714
901 2 1.47186 4.81107 29.0791
902 2 19.1841 51.8961 29.0837
903 2 19.188 51.8971 37.3335
904 2 19.1923 51.8968 45.5885
905 2 25.0883 4.81059 4.3081
906 2 25.0906 4.8105 12.5636
907 2 25.088 4.81752 20.8243
908 2 25.0932 4.81248 29.0807
909 2 25.0881 4.81762 37.3396
910 2 19.19 51.8967 20.8218
911 2 25.0902 4.80646 45.5913
912 2 25.0915 16.582 12.5717
913 2 25.0931 16.581 20.8131
914 2 25.0909 16.5842 29.0875
915 2 25.0925 16.5847 37.3359
916 2 25.0879 16.5749 45.5932
917 2 25.0911 28.3516 4.31141
918 2 25.0935 28.3569 12.5705
919 2 25.0865 28.3536 20.824
920 2 25.0847 16.5882 4.31159
921 2 19.1853 51.8938 12.5672
922 2 19.1848 51.8899 4.31078
923 2 19.1855 40.1158 45.5852
924 2 19.187 4.81606 37.3347
925 2 19.1827 4.80243 45.591
926 2 19.1825 16.5857 4.31086
927 2 19.1857 16.5834 12.5667
928 2 19.1805 16.5786 20.8219
929 2 19.1821 16.5819 29.0697
930 2 19.1855 16.5825 37.3387
931 2 19.1841 16.5781 45.5838
932 2 19.1918 28.3536 4.30963
933 2 19.1874 28.3546 12.5645
934 2 19.1828 28.3479 20.823
935 2 19.1878 28.3542 29.0812
936 2 19.1814 28.3501 37.3374
937 2 19.178 28.3563 45.5929
938 2 19.1876 40.1222 4.30635
939 2 19.1876 40.1274 12.5562
940 2 19.1869 40.1237 20.8242
941 2 19.182 40.1193 29.0776
942 2 19.1823 40.1185 37.3375
943 2 25.0872 28.3489 29.0729
944 2 19.1866 4.80767 29.0771
945 2 25.0926 28.3478 37.3375
946 2 25.0887 40.1264 4.3106
947 2 30.9978 28.3511 4.3121
948 2 30.9872 28.3552 12.5639
949 2 30.9921 28.3533 20.8157
950 2 31.0004 28.3583 29.0832
951 2 30.993 28.3451 37.3306
952 2 30.9975 28.3556 45.597
953 2 30.9903 40.1284 4.30564
954 2 30.9942 40.1199 12.5738
955 2 30.9937 16.5749 45.5824
956 2 30.994 40.1184 20.8287
957 2 30.9963 40.1193 37.3339
958 2 30.9959 40.1209 45.5938
959 2 30.9944 51.8971 4.31405
960 2 30.9964 51.9002 12.5665
961 2 30.9907 51.8918 20.8207
962 2 30.9973 51.8924 29.0889
963 2 30.9955 51.9004 37.3474
964 2 30.9982 51.8976 45.5953
965 2 30.9912 40.1207 29.0756
966 2 30.9953 16.5767 37.341
967 2 30.9929 16.5787 29.0749
968 2 30.9854 16.5805 20.8269
969 2 25.0867 40.1228 12.564
970 2 25.1018 40.1259 20.8323
971 2 25.0845 40.1223 29.0781
972 2 25.0865 40.1275 37.3252
973 2 25.0948 40.1187 45.5953
974 2 25.0943 51.8995 4.3096
975 2 25.0924 51.8984 12.5681
976 2 25.0857 51.8937 20.8255
977 2 25.095 51.8955 29.0853
978 2 25.0858 51.8923 37.329
979 2 25.0866 51.8912 45.5931
980 2 30.9937 4.81072 4.30787
981 2 30.9939 4.79845 12.5679
982 2 30.9926 4.81259 20.8218
983 2 30.9878 4.80864 29.0744
984 2 30.9933 4.81182 37.332
985 2 30.9902 4.80459 45.5938
986 2 30.9912 16.5745 4.31316
987 2 30.9907 16.587 12.5648
988 2 25.0934 28.3548 45.5956
989 2 1.47153 4.80933 20.8255
990 2 19.1868 4.80905 20.8216
991 2 19.1879 4.80874 4.30482
992 2 1.46835 51.8931 29.0785
993 2 1.47815 51.8963 37.3369
994 2 1.4791 51.8931 45.5899
995 2 7.38068 4.80228 4.30435
996 2 7.37408 4.812 12.5637
997 2 7.37319 4.8193 20.8236
998 2 7.38007 4.81197 29.082
999 2 7.37468 4.81614 37.3348
1000 2 1.46312 51.8935 20.8295