ITEM: TIMESTEP
75000
ITEM: NUMBER OF ATOMS
20480
ITEM: BOX BOUNDS xy xz yz pp pp pp
4.8347351773969649e-04 9.1255887070883205e+01 0.0000000000000000e+00
-7.3957778522597550e-03 9.1263766322252536e+01 0.0000000000000000e+00
-3.6602316347593700e-02 3.2300602255347336e+01 0.0000000000000000e+00
ITEM: ATOMS id type x y z
1 2 71.4328 65.8615 16.2798
2 2 25.5769 20.0825 15.9844
3 2 74.0299 68.5983 16.1701
4 2 28.5415 23.0862 15.8639
5 2 76.9578 71.4823 15.8438
6 2 31.4414 25.8356 15.7937
7 2 79.8504 74.2376 16.2165
8 2 34.354 28.4915 16.3482
9 2 59.9295 54.4373 24.1227
10 2 14.3168 8.54754 23.8291
11 2 62.79 57.3011 24.13
12 2 17.1254 11.4605 24.115
13 2 65.364 59.8353 16.0808
14 2 20.1116 14.5355 16.0346
15 2 68.1784 62.6626 15.7729
16 2 22.6547 17.2799 15.7533
17 2 48.1553 42.7882 24.1749
18 2 2.42677 88.3148 24.604
19 2 51.6667 45.9862 23.9427
20 2 5.68182 91.2958 23.9685
21 2 54.4018 48.761 24.1601
22 2 8.32574 2.72245 24.0579
23 2 57.2464 51.1805 24.1785
24 2 11.5206 5.5936 24.0361
25 2 82.8972 77.0674 20.236
26 2 37.3482 31.2284 20.1939
27 2 85.6581 79.6638 20.0732
28 2 40.057 34.122 20.1225
29 2 88.6383 82.7302 20.2102
30 2 42.9568 37.3497 20.2094
31 2 91.0891 85.6934 20.4937
32 2 45.5139 39.9554 20.2795
33 2 5.55687 5.7075 32.02
34 2 51.2476 51.2497 31.8729
35 2 8.70339 8.77576 32.0809
36 2 54.3905 54.4066 31.9656
37 2 11.4886 11.5935 31.999
38 2 57.3859 57.1605 32.21
39 2 14.5035 14.3484 32.2819
40 2 59.9534 59.7664 32.1165
41 2 11.3716 11.7036 4.21039
42 2 57.0636 57.1709 3.84244
43 2 14.5144 14.5857 4.27457
44 2 60.0964 60.1919 4.39802
45 2 0.29721 91.1041 32.2448
46 2 46.0205 45.486 32.175
47 2 2.83425 2.76514 31.9849
48 2 48.3761 48.7224 31.9348
49 2 0.173532 0.144761 3.85535
50 2 45.927 45.5688 3.87189
51 2 2.97632 3.07939 4.20354
52 2 48.6951 48.5124 4.03001
53 2 5.26185 5.54302 4.28959
54 2 50.9081 51.1613 4.39479
55 2 8.20545 8.67354 3.84728
56 2 54.1156 54.5588 3.77041
57 2 33.8319 34.086 32.0827
58 2 79.7741 79.9865 32.1287
59 2 37.214 37.2888 32.2138
60 2 82.7365 82.7247 32.2875
61 2 40.1545 40.0189 32.1001
62 2 85.8714 85.7557 32.1044
63 2 42.8189 42.6926 32.2179
64 2 88.3931 88.1711 0.00777767
65 2 22.5317 22.7958 4.10774
66 2 68.3286 68.2581 3.97258
67 2 25.6906 25.7655 3.95207
68 2 71.2918 71.3067 4.02902
69 2 28.4444 28.7289 3.97667
70 2 74.0895 74.4485 4.23124
71 2 31.1405 31.5266 3.95444
72 2 76.6415 77.011 4.11094
73 2 11.6216 11.3071 11.8064
74 2 56.9278 56.7986 12.0261
75 2 14.2214 14.3277 11.8522
76 2 59.7284 59.8753 11.8678
77 2 17.4158 17.097 3.80962
78 2 63.073 62.6033 4.14129
79 2 19.8313 19.7631 3.89087
80 2 65.5073 65.269 4.09736
81 2 91.1111 0.1838 12.146
82 2 45.6042 45.873 11.9583
83 2 2.74277 3.15145 12.2391
84 2 48.668 48.9175 12.3918
85 2 5.15201 5.78424 12.1381
86 2 51.2581 51.1627 12.3233
87 2 8.24296 8.63966 12.0668
88 2 53.7987 54.3566 11.9977
89 2 34.1167 34.4479 8.09285
90 2 79.6677 80.1344 8.04898
91 2 36.8284 37.1321 8.05344
92 2 82.3541 82.7295 8.23506
93 2 39.7709 40.0657 7.7756
94 2 85.3987 85.6392 7.60699
95 2 42.9146 42.9936 7.84568
96 2 88.0769 88.5477 8.00804
97 2 22.6828 22.6299 8.21234
98 2 68.4437 68.5179 8.11836
99 2 25.7759 25.7615 8.29998
100 2 71.4918 71.3307 8.16886
101 2 28.832 28.5504 8.1523
102 2 74.559 74.23 8.24699
103 2 31.0343 31.6562 8.08917
104 2 76.7476 77.0007 8.34023
105 2 11.5487 11.2369 15.968
106 2 57.3799 56.9063 16.1675
107 2 14.0924 14.327 16.2259
108 2 59.507 59.8491 16.1485
109 2 16.8411 17.074 7.77134
110 2 62.4495 62.5609 8.09853
111 2 19.8543 19.7827 8.03242
112 2 65.7296 65.5182 8.48105
113 2 0.0364312 0.365504 16.2121
114 2 45.6846 45.7892 16.3454
115 2 3.1545 3.01518 16.2596
116 2 48.8318 48.8436 16.2684
117 2 5.282 5.62169 15.9064
118 2 51.1871 51.1204 16.0333
119 2 8.31925 8.47129 16.3544
120 2 53.6888 54.0993 16.1291
121 2 34.0079 34.4287 11.695
122 2 79.7028 80.0306 11.9698
123 2 37.0681 37.2426 12.0844
124 2 82.532 82.9812 11.8617
125 2 39.839 40.0131 11.9063
126 2 85.484 85.8472 12.2793
127 2 42.959 42.9512 11.9278
128 2 88.1691 88.6531 12.148
129 2 22.5549 22.4853 12.071
130 2 68.3511 68.3309 12.2369
131 2 26.1063 25.8863 12.4888
132 2 71.8634 71.8041 12.381
133 2 28.8755 29.0706 11.5887
134 2 74.2483 74.5576 11.6887
135 2 31.189 31.6851 11.5887
136 2 76.773 77.1946 11.8164
137 2 11.6491 11.2251 20.2519
138 2 57.2531 57.0017 20.1414
139 2 13.8786 14.1769 19.8912
140 2 59.7155 59.9216 19.9793
141 2 17.1489 17.2613 11.7733
142 2 62.4456 62.8675 12.1398
143 2 19.8249 19.9435 12.1134
144 2 65.6619 65.4326 12.0314
145 2 0.087321 0.592167 20.3779
146 2 45.7505 46.169 20.447
147 2 3.0468 3.20577 20.2347
148 2 48.5488 48.7744 20.4839
149 2 5.59829 5.37201 20.2492
150 2 51.2628 50.9738 20.3954
151 2 8.56789 8.36527 20.0248
152 2 53.8786 54.0459 20.0319
153 2 34.1212 34.1224 15.945
154 2 79.7989 80.0581 15.9946
155 2 37.2611 37.1422 16.0359
156 2 82.7356 83.0268 15.9678
157 2 39.8002 39.9455 15.9302
158 2 85.7251 85.7341 15.835
159 2 42.7391 42.6468 15.9674
160 2 88.1996 88.8436 16.1692
161 2 22.5889 23.2206 16.5125
162 2 68.3557 69.0319 16.4035
163 2 25.3692 25.751 16.2449
164 2 71.2862 71.63 16.1008
165 2 28.4341 28.4355 15.7814
166 2 74.2469 74.2672 15.7919
167 2 30.9943 31.3295 16.1606
168 2 76.7171 77.3532 16.327
169 2 11.5062 11.3824 24.2373
170 2 57.018 57.066 24.4216
171 2 14.1405 14.4661 24.0798
172 2 59.6984 59.804 24.2033
173 2 16.9472 17.2368 16.0453
174 2 62.464 62.9344 16.1454
175 2 19.5204 20.0744 16.1292
176 2 65.3963 65.5232 15.8331
177 2 90.9867 91.0214 24.2053
178 2 45.4023 45.4608 24.4104
179 2 2.68312 3.2126 23.886
180 2 48.4406 48.756 23.7682
181 2 5.56115 5.5559 24.0763
182 2 51.4399 51.1209 24.1435
183 2 8.81705 8.74053 24.3272
184 2 54.1928 54.2495 24.5037
185 2 34.1457 34.418 19.9087
186 2 79.8783 79.9606 20.1108
187 2 37.0675 37.2613 20.1581
188 2 82.5867 82.9576 19.9083
189 2 39.7189 40.0722 19.9361
190 2 85.5358 85.6993 20.1361
191 2 42.9259 42.8665 20.4353
192 2 88.2448 88.7954 19.923
193 2 22.6182 23.2647 19.9366
194 2 68.1411 68.7595 20.029
195 2 25.4141 25.8165 19.9516
196 2 70.8813 71.3002 19.9895
197 2 28.3521 28.8118 19.7578
198 2 73.9939 74.3615 19.8318
199 2 31.1142 31.8499 19.8433
200 2 76.8168 77.3413 19.9494
201 2 11.3989 11.3643 28.4224
202 2 57.3128 57.2436 28.2447
203 2 14.2152 14.2499 28.3916
204 2 59.908 60.129 28.3104
205 2 17.1466 17.3443 19.9206
206 2 62.7488 62.8273 19.9059
207 2 19.9252 20.1726 19.7588
208 2 65.48 65.8596 19.969
209 2 91.1345 90.9359 27.9616
210 2 45.4693 45.3521 27.9785
211 2 2.87513 3.17483 28.2269
212 2 48.6081 48.2443 28.0961
213 2 5.60325 5.69762 28.0194
214 2 51.2958 50.9869 28.1159
215 2 8.6176 9.04449 28.4648
216 2 54.3158 54.4385 28.3245
217 2 34.1711 34.4883 24.1271
218 2 80.157 80.1054 24.1965
219 2 37.1786 37.25 24.1435
220 2 82.7281 82.8101 24.1952
221 2 40.1222 39.997 24.1085
222 2 85.7044 85.6922 24.1071
223 2 42.5534 42.8755 24.475
224 2 88.6368 88.5296 24.3119
225 2 22.7283 22.8551 23.9507
226 2 68.1324 68.4119 24.1029
227 2 25.4919 25.6977 24.147
228 2 71.1575 71.1518 24.2357
229 2 28.6736 28.4607 24.1171
230 2 74.1954 74.2239 24.052
231 2 31.4431 31.7889 24.1084
232 2 76.8789 77.1575 23.9242
233 2 8.73269 14.5169 0.237111
234 2 54.4579 60.1217 -0.00849291
235 2 11.6969 17.0728 32.2611
236 2 57.2936 62.9107 0.0121513
237 2 17.0761 17.2755 24.178
238 2 62.9285 62.8116 24.2568
239 2 19.9354 19.9439 24.0749
240 2 65.6467 65.5251 24.2758
241 2 88.2331 2.88939 31.9836
242 2 42.8363 48.5319 32.2135
243 2 91.0842 6.20468 32.3288
244 2 45.5829 51.7125 32.0879
245 2 2.65447 8.64955 -0.0146142
246 2 48.0611 54.3958 32.0774
247 2 5.82497 11.5993 -0.0196329
248 2 51.4281 56.8968 32.2106
249 2 34.4026 34.3178 28.0939
250 2 79.8927 80.0962 27.9474
251 2 37.0623 36.8818 27.9456
252 2 82.7356 82.353 28.2737
253 2 40.2814 39.9855 28.4177
254 2 85.8239 85.7948 28.4069
255 2 42.9078 42.5922 28.4211
256 2 88.5703 88.3583 28.1131
257 2 22.4713 22.765 28.2502
258 2 68.0587 68.3983 28.1428
259 2 25.5381 25.8104 28.3337
260 2 71.4229 71.4248 28.334
261 2 28.4141 28.5165 28.2771
262 2 74.0856 74.2979 28.2223
263 2 31.4503 31.6073 28.2408
264 2 77.2859 77.1355 28.3434
265 2 8.51747 14.2564 4.00845
266 2 53.722 59.9702 3.8724
267 2 11.7113 17.3372 3.9126
268 2 57.318 62.6249 4.14814
269 2 17.3151 17.2562 28.2215
270 2 63.0173 62.7754 28.4652
271 2 19.7704 19.8945 28.3068
272 2 65.68 65.5885 28.186
273 2 88.3955 3.10071 3.83608
274 2 42.7693 48.8864 4.04228
275 2 -0.0243793 5.91644 3.98479
276 2 45.4285 51.5506 4.17545
277 2 3.12657 8.55228 4.11562
278 2 48.7806 54.1271 4.25864
279 2 5.71852 11.8723 3.6632
280 2 51.2876 57.054 3.83645
281 2 31.4439 37.1609 32.2242
282 2 76.9578 82.5357 0.000664446
283 2 34.0604 40.102 32.0945
284 2 79.8684 85.5194 0.021847
285 2 37.1349 43.0756 32.0273
286 2 82.8815 88.652 32.1909
287 2 39.7808 45.798 32.103
288 2 85.5736 0.232493 31.9798
289 2 19.5831 25.8684 32.0123
290 2 65.3006 71.187 32.2323
291 2 22.458 28.8282 32.2465
292 2 68.1272 74.2945 0.0745598
293 2 25.7244 31.604 32.228
294 2 71.491 77.3943 0.0577008
295 2 28.3532 34.1455 32.2796
296 2 74.0714 79.8166 0.059868
297 2 8.38751 14.287 7.97769
298 2 54.2326 59.9774 7.935
299 2 11.8546 17.221 7.87224
300 2 57.5426 62.7989 7.99339
301 2 14.1269 19.9915 32.014
302 2 60.0205 65.7236 -0.0196441
303 2 17.1214 23.2016 0.0108936
304 2 62.676 68.4662 32.306
305 2 88.3493 3.21111 7.87783
306 2 43.0719 48.8373 8.19404
307 2 0.0302818 5.77318 7.96198
308 2 45.3772 51.502 8.23106
309 2 2.98275 8.7223 7.87895
310 2 48.6262 53.9234 7.81085
311 2 5.65827 11.393 7.71432
312 2 50.861 56.9785 7.90613
313 2 31.312 37.041 3.98339
314 2 76.8468 82.6114 3.95266
315 2 34.1737 39.7115 4.09641
316 2 79.5891 85.5293 4.20278
317 2 37.1269 42.9431 3.67265
318 2 82.8265 88.4035 4.13162
319 2 39.7303 45.5243 3.8614
320 2 85.5941 91.2298 3.69897
321 2 19.4019 26.102 4.02322
322 2 65.289 71.631 4.02081
323 2 22.597 28.7445 3.97082
324 2 68.1158 74.3621 4.22397
325 2 25.6088 31.3805 4.06253
326 2 71.2924 77.2203 3.9601
327 2 28.4785 34.242 3.98645
328 2 74.0239 79.8923 4.17029
329 2 8.44482 14.2187 12.1457
330 2 54.1565 59.655 11.8979
331 2 11.3954 17.0935 11.9082
332 2 57.1147 63.0209 11.9092
333 2 14.188 20.1713 3.85952
334 2 59.987 65.8602 4.11658
335 2 16.9226 23.1557 3.96554
336 2 62.7582 68.7171 4.08461
337 2 88.4709 3.17735 12.1361
338 2 42.9412 48.7098 11.8199
339 2 91.2386 5.74539 11.987
340 2 45.7202 51.7461 12.2527
341 2 2.71911 8.57558 12.1835
342 2 48.5947 54.1989 12.251
343 2 5.44873 11.3043 12.1571
344 2 51.219 56.7801 11.9923
345 2 31.4599 37.2749 8.23802
346 2 76.5216 82.8952 7.95902
347 2 34.1865 39.7593 7.70806
348 2 79.5196 85.677 8.27931
349 2 37.2092 42.853 7.80643
350 2 82.3818 88.5485 8.20463
351 2 39.7795 45.5931 7.68892
352 2 85.4275 0.13244 7.78975
353 2 19.9253 26.086 7.92748
354 2 65.5135 71.4539 8.21644
355 2 22.567 28.807 8.0197
356 2 68.1128 74.2535 7.84007
357 2 25.7393 31.3734 8.22427
358 2 71.5015 77.1163 7.86956
359 2 28.6384 34.5992 7.83388
360 2 73.8809 80.2414 7.92891
361 2 8.1476 14.247 16.1354
362 2 53.9912 59.9146 16.0929
363 2 11.6833 17.3577 16.0319
364 2 57.1232 63.0757 16.1113
365 2 14.2802 19.726 8.00531
366 2 60.0736 65.4933 8.39532
367 2 16.7593 22.7531 7.75
368 2 62.789 68.3435 8.20684
369 2 88.4353 3.31868 16.2035
370 2 42.9522 48.7261 16.1744
371 2 91.077 6.03198 16.4248
372 2 45.8412 51.434 16.28
373 2 2.87203 8.36196 16.4149
374 2 48.2403 54.0095 16.1396
375 2 5.50459 11.4037 16.2151
376 2 51.3147 57.0194 16.1207
377 2 31.2665 37.293 12.0501
378 2 77.0062 82.776 11.657
379 2 34.0672 40.1137 11.6318
380 2 79.6476 85.7842 11.809
381 2 37.0896 43.0938 11.6977
382 2 82.7021 88.6934 11.931
383 2 39.8543 45.9373 11.9631
384 2 85.4021 0.199223 12.1099
385 2 19.7847 25.6854 12.2555
386 2 65.5071 71.6693 12.2338
387 2 22.7885 28.3862 12.1202
388 2 68.5558 74.3205 11.949
389 2 25.661 31.2638 11.8427
390 2 71.0997 76.8745 11.6118
391 2 28.3198 34.5109 11.9889
392 2 74.1149 79.9154 12.0254
393 2 8.37958 14.2989 20.0173
394 2 54.1055 59.8777 20.0003
395 2 11.3774 17.259 19.8969
396 2 57.2945 62.8968 20.046
397 2 14.1965 20.28 12.3607
398 2 59.8388 65.7927 12.5951
399 2 16.8579 23.006 12.339
400 2 62.3451 68.6535 12.2163
401 2 88.6356 3.14888 20.1869
402 2 43.0224 48.5514 20.4737
403 2 0.37929 5.67489 20.4128
404 2 45.7591 51.4302 20.199
405 2 3.25903 8.58265 20.107
406 2 48.7103 53.9078 20.0806
407 2 5.65401 11.5039 20.1353
408 2 51.3699 56.7925 20.0311
409 2 31.2256 37.3907 15.9552
410 2 76.8064 82.7817 15.8515
411 2 34.4146 40.1418 16.0377
412 2 80.2089 85.8392 16.1414
413 2 37.2218 43.1417 15.9693
414 2 82.6896 88.8885 16.0738
415 2 40.0516 45.8414 16.1325
416 2 85.4147 0.159895 16.1692
417 2 19.8174 26.0561 15.758
418 2 65.7206 71.67 15.7779
419 2 22.6877 28.3026 15.9986
420 2 68.3919 74.0685 15.8742
421 2 25.388 31.4817 16.0863
422 2 71.2749 77.2989 16.3108
423 2 28.765 34.0739 16.3006
424 2 74.054 80.1159 16.1645
425 2 8.49638 14.6258 24.6056
426 2 54.2368 60.38 24.4347
427 2 11.3932 17.2379 24.2803
428 2 56.9099 63.0263 24.0847
429 2 14.2569 19.9859 15.9144
430 2 59.5395 65.5459 16.035
431 2 16.6555 22.9332 16.0791
432 2 62.6104 68.4141 16.0728
433 2 88.5874 2.76378 24.2431
434 2 42.9543 48.2475 24.4701
435 2 0.250309 5.77106 24.0097
436 2 45.7006 51.319 23.9816
437 2 3.04598 8.73224 24.3713
438 2 48.5326 54.2008 24.3949
439 2 5.62378 11.7115 24.4588
440 2 51.4227 57.0871 24.6538
441 2 31.5335 37.3269 20.1701
442 2 77.1747 82.5087 19.9488
443 2 34.4072 40.1412 20.1413
444 2 80.0286 85.7891 20.1911
445 2 36.9476 42.9043 20.0966
446 2 82.7225 88.3564 20.1668
447 2 39.9624 45.7628 20.2896
448 2 85.4553 0.0915134 20.2831
449 2 19.7263 25.6765 20.0323
450 2 65.5458 71.3042 19.8499
451 2 22.7371 28.7064 20.0008
452 2 68.3987 74.0884 19.9714
453 2 25.4979 31.4963 19.833
454 2 71.225 77.0044 19.8635
455 2 28.2105 34.1727 20.0346
456 2 74.2486 79.8411 19.9458
457 2 8.463 14.6071 28.0166
458 2 54.0673 59.911 28.0484
459 2 11.4326 17.2666 28.1159
460 2 57.1401 62.8756 28.2598
461 2 14.0241 19.8213 19.8508
462 2 59.5813 65.8702 19.8842
463 2 16.7897 23.255 20.0519
464 2 62.6589 68.3217 19.9775
465 2 88.1641 2.98501 27.9205
466 2 42.5877 48.6569 28.0218
467 2 91.1431 5.63041 28.1311
468 2 45.8182 51.4499 28.0131
469 2 3.1319 8.58076 28.0172
470 2 48.8191 54.4437 28.2323
471 2 5.83048 11.623 28.1287
472 2 51.528 56.9423 28.2593
473 2 31.4782 37.2779 24.1672
474 2 76.8676 82.7911 24.412
475 2 34.2331 40.2286 23.9876
476 2 79.8321 85.7864 24.1044
477 2 37.1252 43.0915 24.2713
478 2 82.7517 88.6392 24.0912
479 2 40.3483 45.8494 24.4768
480 2 85.8641 0.238246 24.4553
481 2 19.6299 25.6451 24.4622
482 2 65.425 71.2978 24.4048
483 2 22.5261 28.5146 24.1361
484 2 68.3439 74.0401 24.2169
485 2 25.6848 31.4594 24.1089
486 2 71.5028 77.1168 23.9688
487 2 28.5871 34.7828 24.408
488 2 74.0838 80.0819 24.096
489 2 5.74123 16.9732 32.2265
490 2 51.0143 62.5797 32.0086
491 2 8.67977 20.2369 32.047
492 2 54.135 65.8621 32.175
493 2 14.1735 20.4575 24.2921
494 2 59.8865 66.0457 24.3511
495 2 16.9079 23.1157 24.4277
496 2 62.5947 68.334 24.3368
497 2 85.5777 5.69333 -0.00184738
498 2 39.8098 51.4087 32.116
499 2 88.8336 8.95382 32.1877
500 2 42.9836 54.7166 31.9487
501 2 0.118258 11.9685 0.0777799
502 2 45.4024 57.4634 32.2734
503 2 2.97193 14.4927 0.123909
504 2 48.4445 59.9627 0.00139021
505 2 31.2093 37.0774 28.0471
506 2 76.6085 82.8191 28.0596
507 2 34.1328 39.8946 28.027
508 2 79.6819 85.7069 28.0535
509 2 37.3086 43.0264 28.2216
510 2 82.6908 88.4023 28.2109
511 2 40.0304 45.6831 28.0404
512 2 85.6723 0.261979 28.0548
513 2 19.5666 25.9198 28.2
514 2 65.284 71.3298 28.4404
515 2 22.3618 28.6764 28.2002
516 2 67.972 74.5245 28.2313
517 2 25.4417 31.6462 28.1288
518 2 71.4652 77.3596 28.3241
519 2 28.5349 34.6669 28.0675
520 2 74.0344 79.9987 28.3765
521 2 5.53399 17.02 3.70275
522 2 51.2418 62.6144 3.50412
523 2 8.6289 20.2759 3.81527
524 2 54.1205 65.8585 3.69421
525 2 14.3263 20.0963 27.9458
526 2 59.8838 65.2842 28.3443
527 2 17.3629 23.181 28.2053
528 2 62.859 68.4369 28.1421
529 2 85.2926 5.99123 4.27082
530 2 39.9785 51.5377 3.68403
531 2 87.9902 8.95724 4.13277
532 2 42.7255 54.4903 3.64007
533 2 91.197 11.8743 3.76802
534 2 45.5641 57.4182 3.8283
535 2 2.94852 14.5232 3.46399
536 2 48.6053 60.4642 3.44516
537 2 28.4986 40.352 32.0252
538 2 74.1206 85.674 32.175
539 2 31.3306 42.8188 32.0111
540 2 76.7884 88.4422 32.2838
541 2 34.3587 46.0296 32.0329
542 2 80.1369 0.401698 32.0368
543 2 37.102 48.7211 31.8544
544 2 82.5775 3.06952 31.8382
545 2 16.9629 28.6163 31.8316
546 2 62.5086 73.9669 32.0813
547 2 19.6828 31.4609 32.1364
548 2 65.2246 76.901 32.1455
549 2 22.7803 34.51 0.108991
550 2 68.3621 80.3132 0.220239
551 2 25.5239 37.0926 32.1634
552 2 71.2977 82.808 0.0581747
553 2 5.60872 17.2597 8.00074
554 2 50.9436 62.732 8.11378
555 2 8.57091 20.3548 8.11738
556 2 54.4086 65.7198 7.92824
557 2 11.4621 23.1909 32.205
558 2 57.015 68.6582 0.249622
559 2 14.2329 25.8519 31.8415
560 2 59.4937 71.3912 0.00933523
561 2 85.0666 5.93442 7.83182
562 2 39.3576 51.4719 7.87869
563 2 88.3002 8.73538 7.99333
564 2 42.7016 54.2092 8.11121
565 2 91.1188 11.7652 8.02497
566 2 45.5741 57.4706 7.82895
567 2 2.83276 14.2161 7.81977
568 2 48.4125 59.934 7.93583
569 2 28.2135 40.1331 4.19812
570 2 74.0834 85.8143 4.35373
571 2 31.2309 42.9274 4.20088
572 2 76.777 88.4753 3.98619
573 2 34.4548 45.5304 3.88353
574 2 79.909 91.1142 3.98308
575 2 37.2895 48.599 3.98958
576 2 82.815 3.01765 3.79395
577 2 16.8493 28.5378 3.9265
578 2 62.7529 74.1078 4.13585
579 2 19.8432 31.3394 4.05431
580 2 65.3181 77.1398 3.8973
581 2 22.5808 34.3642 3.76659
582 2 68.042 79.9125 3.87974
583 2 25.2855 37.0582 3.83658
584 2 71.0567 83.0406 3.87719
585 2 5.28198 17.0212 11.8565
586 2 51.1806 62.582 12.2312
587 2 8.59976 20.0569 12.1088
588 2 54.2912 65.5141 12.2976
589 2 11.3355 23.2275 3.78754
590 2 57.1776 68.9 3.91339
591 2 14.1645 25.7763 3.71289
592 2 59.686 71.6379 4.17061
593 2 85.2123 5.97081 12.0629
594 2 39.7418 51.6159 11.8994
595 2 88.3192 8.63201 12.137
596 2 43.0199 54.4108 11.9802
597 2 0.0850818 11.4415 12.3613
598 2 45.8477 57.3602 12.4509
599 2 2.87201 13.9295 12.1953
600 2 48.3824 59.68 11.9212
601 2 28.3441 39.9939 7.98468
602 2 74.2084 85.9328 8.23402
603 2 31.2706 42.6593 8.09709
604 2 76.8212 88.3479 7.94413
605 2 33.9703 45.4095 7.95976
606 2 79.9561 0.170541 7.88064
607 2 37.0505 48.5839 7.88089
608 2 82.7256 3.15203 8.07121
609 2 16.8634 28.7631 7.53364
610 2 62.7139 74.5418 7.67975
611 2 19.9095 31.4764 7.86301
612 2 65.6959 77.2047 7.70016
613 2 22.8202 34.3471 7.92655
614 2 68.2313 79.8512 8.18088
615 2 25.7194 37.1523 7.81316
616 2 71.5297 83.1497 7.953
617 2 5.45913 17.1333 15.974
618 2 51.3793 62.4132 16.1112
619 2 8.28523 20.0525 15.8541
620 2 54.1456 65.7246 16.1943
621 2 11.506 23.2421 8.28508
622 2 56.8647 68.8596 8.07972
623 2 14.0093 25.9792 8.26212
624 2 59.9457 71.7628 7.9003
625 2 85.2721 5.89434 16.0624
626 2 40.166 51.5729 16.0324
627 2 88.376 9.06973 16.309
628 2 43.0956 54.2667 16.3672
629 2 -2.12214e-05 11.2353 16.2105
630 2 45.9734 57.3426 16.2157
631 2 2.82109 14.133 16.3557
632 2 48.557 59.7688 16.0604
633 2 28.4359 40.3811 12.2553
634 2 73.9571 86.0678 12.2301
635 2 30.9989 42.8559 11.9529
636 2 76.4891 88.6302 12.286
637 2 34.5283 45.4667 11.8101
638 2 79.9756 91.1983 11.8172
639 2 36.9781 48.6468 12.0465
640 2 82.7746 3.14332 11.7556
641 2 17.0841 28.5523 11.9878
642 2 62.5696 74.312 12.426
643 2 20.0344 31.6803 11.8943
644 2 65.315 77.2351 11.9731
645 2 22.4211 34.5773 11.9381
646 2 68.1972 79.8503 11.6971
647 2 25.543 37.5633 12.1958
648 2 70.9468 83.0849 11.9238
649 2 5.43804 17.1647 20.0951
650 2 50.9964 62.7416 20.2272
651 2 8.888 19.9775 20.0425
652 2 54.1776 65.615 20.2563
653 2 11.7454 22.8027 12.3813
654 2 57.101 68.706 11.904
655 2 14.2984 26.1606 12.1491
656 2 59.8198 71.6033 11.8913
657 2 85.5305 6.11586 20.2986
658 2 39.8679 51.5146 19.901
659 2 88.406 9.052 20.0915
660 2 43.0614 54.6165 20.1151
661 2 0.0602046 11.3926 20.2579
662 2 45.9004 57.325 20.0953
663 2 2.89537 14.4153 20.2845
664 2 48.7494 59.8502 20.2683
665 2 28.2565 40.379 15.8261
666 2 73.8091 85.8099 15.8335
667 2 30.9891 43.2743 15.7107
668 2 76.7762 88.9314 16.0153
669 2 34.1732 46.0976 15.7699
670 2 79.7159 0.349811 15.993
671 2 37.0803 48.7219 15.7584
672 2 82.3071 3.00591 15.8495
673 2 17.212 28.8466 15.7643
674 2 62.7572 74.2355 15.8161
675 2 19.9508 31.4167 16.0525
676 2 65.5189 76.9747 15.921
677 2 22.5011 34.2466 15.9868
678 2 68.3791 79.79 16.0771
679 2 25.771 37.682 16.2214
680 2 71.1897 83.0787 15.6953
681 2 5.5223 17.0798 24.4386
682 2 51.0657 62.9108 24.4534
683 2 8.3752 20.2172 24.28
684 2 54.0849 65.7182 24.3858
685 2 11.5495 22.6565 16.1161
686 2 56.9384 68.4261 15.8989
687 2 14.3665 25.6858 16.2834
688 2 60.0304 71.2254 16.1698
689 2 85.2401 6.01037 24.3283
690 2 39.6592 51.7399 24.2276
691 2 88.0994 9.00734 24.317
692 2 42.6424 54.3597 23.9918
693 2 91.1327 11.5841 24.547
694 2 45.6336 57.0265 24.3829
695 2 2.9885 14.458 24.6946
696 2 48.624 60.2747 24.0686
697 2 28.2565 40.451 20.0208
698 2 73.9899 85.9382 20.1253
699 2 31.2123 43.267 20.1958
700 2 76.8933 88.8794 20.4162
701 2 34.127 46.0575 20.2058
702 2 79.7616 0.20749 20.1724
703 2 36.8118 48.6614 20.3333
704 2 82.6173 3.03222 20.1117
705 2 17.3204 28.5392 19.875
706 2 62.8273 74.2091 19.8713
707 2 19.9023 31.5551 19.9218
708 2 65.6822 77.1177 19.9562
709 2 22.5768 34.5165 20.2059
710 2 68.343 79.9083 20.0455
711 2 25.616 37.3857 20.0913
712 2 71.2901 83.0705 20.0275
713 2 5.62773 17.1957 28.0705
714 2 51.2445 62.5156 28.0549
715 2 8.40058 20.4799 28.2316
716 2 54.2355 65.6563 28.3034
717 2 11.5315 22.7006 20.1096
718 2 57.0677 68.5759 19.9766
719 2 14.2624 25.9168 20.1951
720 2 59.9037 71.1136 20.1252
721 2 85.2795 5.76806 27.8356
722 2 39.7463 51.4378 27.8524
723 2 88.5938 8.80304 28.4267
724 2 42.6733 54.403 28.0624
725 2 91.0762 11.6558 28.6751
726 2 45.212 57.1188 28.6623
727 2 2.88417 14.5024 28.1135
728 2 48.2961 59.8277 28.2803
729 2 28.2571 40.2295 24.044
730 2 74.1184 85.6794 24.0586
731 2 31.222 43.3231 23.7549
732 2 76.8832 88.6927 23.8483
733 2 34.3715 45.8231 23.9658
734 2 79.8309 0.0485525 23.9366
735 2 37.2747 48.8605 24.2399
736 2 82.7363 3.27571 24.4599
737 2 16.8496 28.715 24.3625
738 2 62.6847 73.9008 24.0707
739 2 19.7919 31.6642 24.4335
740 2 65.3453 76.9584 24.281
741 2 22.7325 34.3088 24.0335
742 2 68.1804 79.8921 24.1589
743 2 25.5923 37.4159 24.134
744 2 71.2809 82.9164 23.953
745 2 2.90854 19.9568 32.0713
746 2 48.7023 65.8215 31.9934
747 2 5.35679 22.8914 32.0448
748 2 51.2072 68.5966 31.8605
749 2 11.6265 22.9376 24.2867
750 2 57.0874 68.5707 24.2818
751 2 14.1049 25.7894 24.113
752 2 60.1335 71.2168 24.3625
753 2 82.8116 8.44067 32.1127
754 2 37.0995 54.1113 32.294
755 2 85.5234 11.6179 32.1238
756 2 40.0772 57.3191 32.0111
757 2 88.7713 14.361 32.0173
758 2 42.9895 60.1424 32.1999
759 2 0.406364 16.8973 32.3083
760 2 45.7305 62.3785 32.2862
761 2 28.5123 39.9146 28.168
762 2 73.7513 85.4777 28.2667
763 2 31.3262 42.8896 28.1153
764 2 76.8307 88.547 28.0412
765 2 34.567 46.1685 28.5551
766 2 80.2046 0.327112 28.4887
767 2 37.3624 48.7664 27.9918
768 2 82.9037 2.98752 28.1649
769 2 17.0248 28.5735 28.1782
770 2 62.8411 74.0798 28.3753
771 2 19.7348 31.8163 28.3518
772 2 65.154 77.1035 28.081
773 2 22.5871 34.3942 27.9878
774 2 68.4223 80.0372 28.2005
775 2 25.7531 37.1974 28.1495
776 2 71.4669 82.7441 28.0223
777 2 3.1057 19.8061 3.89819
778 2 48.5709 65.5854 3.71765
779 2 5.60442 22.8746 3.79012
780 2 51.1837 68.6226 3.6731
781 2 11.5144 22.9221 28.0568
782 2 57.0731 68.3289 28.0826
783 2 14.2112 26.1837 27.9868
784 2 59.7526 71.3591 28.1968
785 2 82.8035 8.68741 3.9447
786 2 37.2269 54.1011 4.10114
787 2 85.3206 11.769 3.647
788 2 39.7978 57.1907 3.71575
789 2 88.4457 14.428 3.90751
790 2 42.8607 60.2815 3.88247
791 2 0.339885 16.9586 3.803
792 2 45.8188 62.9293 3.76621
793 2 25.6628 43.2677 0.237124
794 2 71.2244 88.8812 32.1491
795 2 28.6599 46.0648 0.0504366
796 2 74.1386 0.368644 32.1667
797 2 31.1324 48.856 0.391539
798 2 77.1808 3.24267 32.2266
799 2 34.0053 51.2925 32.1778
800 2 80.147 5.65823 32.108
801 2 14.2466 31.1985 31.9924
802 2 59.4787 77.0045 32.0898
803 2 16.849 34.2348 32.0577
804 2 62.5498 79.9133 32.2466
805 2 19.7723 37.2698 0.101609
806 2 65.3349 82.6205 0.0262735
807 2 22.695 40.1411 0.0815573
808 2 68.0569 85.4764 -0.0483979
809 2 2.9033 19.7407 8.31373
810 2 48.512 65.5508 7.98555
811 2 5.90657 23.1364 8.25486
812 2 51.4885 68.5325 8.06481
813 2 8.82184 25.9611 0.210403
814 2 54.2075 71.5166 32.1371
815 2 11.3311 28.9301 31.9935
816 2 57.0156 74.4049 31.9227
817 2 82.6358 9.02991 7.8076
818 2 37.1721 54.1796 7.74551
819 2 85.6481 11.4947 8.20798
820 2 39.9353 57.06 7.83301
821 2 88.4779 14.4975 7.74146
822 2 42.9988 60.2831 7.74975
823 2 0.157874 16.87 7.98945
824 2 45.8467 62.7819 8.17152
825 2 25.5422 43.3451 4.38122
826 2 71.2931 88.7928 4.00662
827 2 27.8602 45.8676 4.14801
828 2 73.6561 0.125969 3.88375
829 2 31.2775 48.4965 3.9485
830 2 77.0383 3.13192 3.80559
831 2 34.4394 51.3784 4.16339
832 2 80.1658 5.79357 3.81894
833 2 14.199 31.4337 4.30029
834 2 59.5603 77.0497 4.2643
835 2 17.0665 34.2787 3.95143
836 2 62.5707 79.871 4.19472
837 2 19.9885 37.2673 3.85576
838 2 65.294 82.7229 3.96347
839 2 22.7288 40.2585 3.82532
840 2 68.2452 85.7433 4.19933
841 2 3.10367 19.9809 12.2113
842 2 48.8299 65.3087 12.0962
843 2 5.41267 22.7903 12.4416
844 2 51.1382 68.5149 12.5306
845 2 8.90601 25.977 3.9009
846 2 54.2128 71.6163 3.90681
847 2 11.6996 29.093 4.14829
848 2 57.1257 74.2916 3.95305
849 2 82.5779 8.88792 12.2951
850 2 37.1489 54.2811 11.8639
851 2 85.5194 11.6418 12.3517
852 2 39.9118 57.146 11.8649
853 2 88.4694 14.385 12.0833
854 2 42.9328 59.9824 12.1605
855 2 0.217487 17.0878 11.8926
856 2 45.8689 63.009 12.0129
857 2 25.4992 42.6882 7.98756
858 2 71.397 88.5101 7.93993
859 2 28.2198 45.5346 7.88384
860 2 74.2897 0.211024 7.95988
861 2 31.4098 48.4885 8.10038
862 2 77.3033 3.07468 7.93587
863 2 34.6347 51.449 7.98043
864 2 80.2189 5.96975 8.07895
865 2 14.292 31.2235 7.73001
866 2 59.9547 77.0835 7.82004
867 2 17.3378 34.3105 7.88562
868 2 62.815 80.1061 7.83998
869 2 19.8834 36.9394 7.97099
870 2 65.6805 82.4153 7.98138
871 2 22.674 39.9688 8.19689
872 2 68.3957 85.6666 7.86745
873 2 2.88794 20.0201 16.0545
874 2 48.7717 65.7276 15.894
875 2 5.4926 22.9917 15.7446
876 2 51.3455 68.4426 15.73
877 2 8.93145 25.87 8.22823
878 2 53.9827 71.5365 8.01413
879 2 11.6256 28.5015 8.35428
880 2 57.3554 74.3971 7.86788
881 2 82.694 9.04839 16.3092
882 2 37.2319 54.591 16.2425
883 2 85.6858 11.6851 16.3949
884 2 40.2403 57.1977 16.2217
885 2 88.5052 14.6687 16.3071
886 2 42.7546 59.8617 15.9724
887 2 91.1493 17.5001 16.4009
888 2 45.8296 62.9725 16.2483
889 2 26.0542 42.7753 12.2259
890 2 71.4094 88.7681 12.254
891 2 28.7099 46.0053 12.4771
892 2 74.2446 0.156797 12.4925
893 2 31.1736 48.5179 12.3814
894 2 77.2939 2.57368 12.0355
895 2 34.4572 51.2108 12.1089
896 2 79.9122 6.15544 12.1122
897 2 14.387 30.9479 12.1503
898 2 60.0532 76.8413 12.0868
899 2 17.3333 34.2575 11.7184
900 2 62.9609 79.9639 11.8625
901 2 20.059 37.3199 11.7364
902 2 65.6221 82.9952 11.7341
903 2 22.8096 40.0157 12.3208
904 2 68.2867 85.6998 11.7429
905 2 2.74056 20.1955 20.3904
906 2 48.1083 65.6292 20.2349
907 2 5.56652 22.9536 20.1638
908 2 51.1605 68.5745 20.0667
909 2 8.44719 25.576 12.3971
910 2 54.4903 71.2077 11.8127
911 2 11.8751 28.6607 12.0676
912 2 57.4003 74.3604 11.8668
913 2 82.8746 8.95588 20.3517
914 2 37.3432 54.4855 20.2087
915 2 85.7056 11.6441 20.4525
916 2 40.1546 57.0095 20.0925
917 2 88.578 14.3662 20.4475
918 2 42.7167 60.0199 20.0018
919 2 0.143109 17.5988 20.2147
920 2 45.7933 62.9321 20.1075
921 2 25.7163 43.1067 16.0615
922 2 71.1375 88.5164 15.7159
923 2 28.6083 45.9743 16.2329
924 2 74.379 0.42807 16.0801
925 2 31.3297 48.2222 15.9268
926 2 77.1884 2.9054 15.8402
927 2 34.2911 51.0177 15.9389
928 2 79.7949 5.32798 15.9764
929 2 14.5134 31.6192 16.0292
930 2 59.9034 77.0731 16.056
931 2 17.1366 34.5997 15.8307
932 2 62.9608 80.1873 15.9657
933 2 19.7241 37.3216 15.9121
934 2 65.4901 82.9791 15.8722
935 2 22.9486 40.1528 15.9379
936 2 68.5699 85.8199 15.824
937 2 3.1325 19.9956 23.9246
938 2 48.7049 65.4213 24.1601
939 2 5.7623 22.7938 24.1948
940 2 51.058 68.6018 24.0026
941 2 8.37569 25.7043 15.9803
942 2 54.2326 71.0909 16.0794
943 2 11.5789 28.7631 16.2595
944 2 57.219 74.1797 16.409
945 2 82.8922 8.76613 23.8869
946 2 37.3189 54.4705 24.1081
947 2 85.6222 11.642 24.1071
948 2 40.1276 57.258 24.0677
949 2 88.5689 14.2119 24.0934
950 2 42.8319 59.8349 24.1129
951 2 0.0205353 17.4444 24.0981
952 2 45.6373 63.1894 23.97
953 2 25.7565 43.1565 20.3391
954 2 71.3737 88.7494 20.1794
955 2 28.8029 45.7348 20.3176
956 2 74.1563 91.0868 20.3696
957 2 31.4973 48.6381 19.9687
958 2 77.1682 2.71336 19.9354
959 2 34.3245 51.5309 20.1718
960 2 79.975 6.06659 20.1699
961 2 13.9746 31.3905 20.1695
962 2 59.5334 76.9125 20.224
963 2 16.7258 34.5845 20.0884
964 2 62.5949 80.1848 20.2107
965 2 19.8826 37.4479 19.9796
966 2 65.4779 82.7205 20.0275
967 2 22.7336 40.2073 19.924
968 2 68.4186 85.586 20.0838
969 2 3.27339 20.3133 28.4903
970 2 48.6797 65.7774 28.4378
971 2 5.85403 23.0618 28.1137
972 2 51.3435 68.3782 28.0108
973 2 8.42707 25.8665 19.8067
974 2 54.4136 71.3315 20.3428
975 2 11.7717 28.5954 20.2278
976 2 57.2749 74.0729 20.2987
977 2 82.8154 8.47943 27.8832
978 2 37.1785 54.1114 27.8163
979 2 85.8514 11.1891 28.1395
980 2 40.0377 57.1725 28.0111
981 2 88.632 14.3695 28.5279
982 2 43.1634 59.9434 28.0916
983 2 0.086562 16.9556 28.3658
984 2 45.7839 62.413 28.1651
985 2 25.5876 43.176 23.9531
986 2 71.1167 88.638 23.9017
987 2 28.8111 45.919 24.0265
988 2 74.4882 0.194778 24.3319
989 2 31.4719 48.2391 23.9066
990 2 77.1237 2.50912 24.0246
991 2 34.5337 51.3527 23.9894
992 2 80.0941 5.92043 24.1135
993 2 14.1332 31.5767 24.009
994 2 59.6669 76.7523 24.076
995 2 17.1397 34.4843 24.057
996 2 62.3721 80.2063 24.0415
997 2 20.0271 37.4402 24.1061
998 2 65.4583 82.8006 24.2687
999 2 22.6362 40.3052 24.2839
1000 2 68.2554 85.8969 24.2029
1001 2 91.0191 23.2193 32.244